
 displacements (vx,vy,vz) for set VERTEX and time  0.1000000E+01

       180 -1.569178E+01  2.330457E+01  0.000000E+00
