    1C
    1UUSER                                                              
    1UDATE              15.may.2021                                     
    1UTIME              14:51:15                                        
    1UHOST                                                              
    1UPGM               CalculiX                                        
    1UVERSION           Version 2.17                             
    1UCOMPILETIME       Thu Jul 23 21:43:50 CEST 2020                    
    1UDIR                                                               
    1UDBN                                                               
    1UMAT    1STEEL                                                     
    1UMAT    2CONTACT                                                   
    2C                          1236                                     1
 -1         1 0.00000E+00 0.00000E+00 0.00000E+00
 -1         2 1.00000E+01 1.00000E+01 0.00000E+00
 -1         3 4.99792E-01 1.24974E-02 0.00000E+00
 -1         4 1.04212E+00 5.44489E-02 0.00000E+00
 -1         5 1.63835E+00 1.35122E-01 0.00000E+00
 -1         6 2.28673E+00 2.64967E-01 0.00000E+00
 -1         7 2.98765E+00 4.56732E-01 0.00000E+00
 -1         8 3.73954E+00 7.25528E-01 0.00000E+00
 -1         9 4.53803E+00 1.08898E+00 0.00000E+00
 -1        10 5.37479E+00 1.56723E+00 0.00000E+00
 -1        11 6.23615E+00 2.18268E+00 0.00000E+00
 -1        12 7.10134E+00 2.95934E+00 0.00000E+00
 -1        13 7.94049E+00 3.92146E+00 0.00000E+00
 -1        14 8.71235E+00 5.09134E+00 0.00000E+00
 -1        15 9.36216E+00 6.48575E+00 0.00000E+00
 -1        16 9.82028E+00 8.11264E+00 0.00000E+00
 -1        17 9.50000E+00 1.00000E+01 0.00000E+00
 -1        18 8.95000E+00 1.00000E+01 0.00000E+00
 -1        19 8.34500E+00 1.00000E+01 0.00000E+00
 -1        20 7.67950E+00 1.00000E+01 0.00000E+00
 -1        21 6.94745E+00 1.00000E+01 0.00000E+00
 -1        22 6.14220E+00 1.00000E+01 0.00000E+00
 -1        23 5.25641E+00 1.00000E+01 0.00000E+00
 -1        24 4.28206E+00 1.00000E+01 0.00000E+00
 -1        25 3.21026E+00 1.00000E+01 0.00000E+00
 -1        26 2.03129E+00 1.00000E+01 0.00000E+00
 -1        27 7.34416E-01 1.00000E+01 0.00000E+00
 -1        28 0.00000E+00 1.00000E+01 0.00000E+00
 -1        29 0.00000E+00 5.00000E-01 0.00000E+00
 -1        30 0.00000E+00 1.05000E+00 0.00000E+00
 -1        31 0.00000E+00 1.65500E+00 0.00000E+00
 -1        32 0.00000E+00 2.32050E+00 0.00000E+00
 -1        33 0.00000E+00 3.05255E+00 0.00000E+00
 -1        34 0.00000E+00 3.85781E+00 0.00000E+00
 -1        35 0.00000E+00 4.74359E+00 0.00000E+00
 -1        36 0.00000E+00 5.71794E+00 0.00000E+00
 -1        37 0.00000E+00 6.78974E+00 0.00000E+00
 -1        38 0.00000E+00 7.96871E+00 0.00000E+00
 -1        39 0.00000E+00 9.26558E+00 0.00000E+00
 -1        40 4.74802E-01 5.11873E-01 0.00000E+00
 -1        41 4.47314E-01 1.06119E+00 0.00000E+00
 -1        42 4.17076E-01 1.66543E+00 0.00000E+00
 -1        43 3.83815E-01 2.33010E+00 0.00000E+00
 -1        44 3.47228E-01 3.06123E+00 0.00000E+00
 -1        45 3.06982E-01 3.86548E+00 0.00000E+00
 -1        46 2.62711E-01 4.75015E+00 0.00000E+00
 -1        47 2.14014E-01 5.72330E+00 0.00000E+00
 -1        48 1.60446E-01 6.79375E+00 0.00000E+00
 -1        49 1.01522E-01 7.97125E+00 0.00000E+00
 -1        50 3.67055E-02 9.26650E+00 0.00000E+00
 -1        51 9.90013E-01 5.51726E-01 0.00000E+00
 -1        52 9.32697E-01 1.09873E+00 0.00000E+00
 -1        53 8.69649E-01 1.70044E+00 0.00000E+00
 -1        54 8.00296E-01 2.36231E+00 0.00000E+00
 -1        55 7.24007E-01 3.09038E+00 0.00000E+00
 -1        56 6.40090E-01 3.89125E+00 0.00000E+00
 -1        57 5.47781E-01 4.77221E+00 0.00000E+00
 -1        58 4.46241E-01 5.74126E+00 0.00000E+00
 -1        59 3.34548E-01 6.80722E+00 0.00000E+00
 -1        60 2.11684E-01 7.97977E+00 0.00000E+00
 -1        61 7.65350E-02 9.26958E+00 0.00000E+00
 -1        62 1.55643E+00 6.28366E-01 0.00000E+00
 -1        63 1.46632E+00 1.17093E+00 0.00000E+00
 -1        64 1.36720E+00 1.76776E+00 0.00000E+00
 -1        65 1.25817E+00 2.42427E+00 0.00000E+00
 -1        66 1.13824E+00 3.14643E+00 0.00000E+00
 -1        67 1.00631E+00 3.94080E+00 0.00000E+00
 -1        68 8.61185E-01 4.81461E+00 0.00000E+00
 -1        69 7.01551E-01 5.77580E+00 0.00000E+00
 -1        70 5.25953E-01 6.83312E+00 0.00000E+00
 -1        71 3.32796E-01 7.99616E+00 0.00000E+00
 -1        72 1.20323E-01 9.27551E+00 0.00000E+00
 -1        73 2.17239E+00 7.51719E-01 0.00000E+00
 -1        74 2.04662E+00 1.28715E+00 0.00000E+00
 -1        75 1.90828E+00 1.87611E+00 0.00000E+00
 -1        76 1.75609E+00 2.52398E+00 0.00000E+00
 -1        77 1.58869E+00 3.23663E+00 0.00000E+00
 -1        78 1.40455E+00 4.02055E+00 0.00000E+00
 -1        79 1.20200E+00 4.88286E+00 0.00000E+00
 -1        80 9.79190E-01 5.83140E+00 0.00000E+00
 -1        81 7.34100E-01 6.87480E+00 0.00000E+00
 -1        82 4.64501E-01 8.02253E+00 0.00000E+00
 -1        83 1.67941E-01 9.28504E+00 0.00000E+00
 -1        84 2.83827E+00 9.33896E-01 0.00000E+00
 -1        85 2.67395E+00 1.45878E+00 0.00000E+00
 -1        86 2.49319E+00 2.03614E+00 0.00000E+00
 -1        87 2.29436E+00 2.67125E+00 0.00000E+00
 -1        88 2.07565E+00 3.36986E+00 0.00000E+00
 -1        89 1.83507E+00 4.13834E+00 0.00000E+00
 -1        90 1.57043E+00 4.98366E+00 0.00000E+00
 -1        91 1.27933E+00 5.91352E+00 0.00000E+00
 -1        92 9.59113E-01 6.93636E+00 0.00000E+00
 -1        93 6.06877E-01 8.06149E+00 0.00000E+00
 -1        94 2.19418E-01 9.29913E+00 0.00000E+00
 -1        95 3.55257E+00 1.18925E+00 0.00000E+00
 -1        96 3.34689E+00 1.69935E+00 0.00000E+00
 -1        97 3.12065E+00 2.26045E+00 0.00000E+00
 -1        98 2.87178E+00 2.87767E+00 0.00000E+00
 -1        99 2.59803E+00 3.55661E+00 0.00000E+00
 -1       100 2.29690E+00 4.30344E+00 0.00000E+00
 -1       101 1.96566E+00 5.12495E+00 0.00000E+00
 -1       102 1.60129E+00 6.02862E+00 0.00000E+00
 -1       103 1.20049E+00 7.02265E+00 0.00000E+00
 -1       104 7.59609E-01 8.11609E+00 0.00000E+00
 -1       105 2.74638E-01 9.31887E+00 0.00000E+00
 -1       106 4.31113E+00 1.53453E+00 0.00000E+00
 -1       107 4.06154E+00 2.02464E+00 0.00000E+00
 -1       108 3.78699E+00 2.56375E+00 0.00000E+00
 -1       109 3.48498E+00 3.15678E+00 0.00000E+00
 -1       110 3.15277E+00 3.80911E+00 0.00000E+00
 -1       111 2.78735E+00 4.52668E+00 0.00000E+00
 -1       112 2.38538E+00 5.31600E+00 0.00000E+00
 -1       113 1.94321E+00 6.18425E+00 0.00000E+00
 -1       114 1.45683E+00 7.13933E+00 0.00000E+00
 -1       115 9.21804E-01 8.18992E+00 0.00000E+00
 -1       116 3.33280E-01 9.34556E+00 0.00000E+00
 -1       117 5.10605E+00 1.98887E+00 0.00000E+00
 -1       118 4.81044E+00 2.45267E+00 0.00000E+00
 -1       119 4.48526E+00 2.96285E+00 0.00000E+00
 -1       120 4.12757E+00 3.52405E+00 0.00000E+00
 -1       121 3.73411E+00 4.14137E+00 0.00000E+00
 -1       122 3.30130E+00 4.82043E+00 0.00000E+00
 -1       123 2.82521E+00 5.56739E+00 0.00000E+00
 -1       124 2.30151E+00 6.38904E+00 0.00000E+00
 -1       125 1.72545E+00 7.29286E+00 0.00000E+00
 -1       126 1.09177E+00 8.28706E+00 0.00000E+00
 -1       127 3.94733E-01 9.38068E+00 0.00000E+00
 -1       128 5.92434E+00 2.57355E+00 0.00000E+00
 -1       129 5.58135E+00 3.00350E+00 0.00000E+00
 -1       130 5.20406E+00 3.47645E+00 0.00000E+00
 -1       131 4.78905E+00 3.99669E+00 0.00000E+00
 -1       132 4.33253E+00 4.56896E+00 0.00000E+00
 -1       133 3.83036E+00 5.19845E+00 0.00000E+00
 -1       134 3.27798E+00 5.89089E+00 0.00000E+00
 -1       135 2.67035E+00 6.65258E+00 0.00000E+00
 -1       136 2.00197E+00 7.49044E+00 0.00000E+00
 -1       137 1.26674E+00 8.41208E+00 0.00000E+00
 -1       138 4.57993E-01 9.42588E+00 0.00000E+00
 -1       139 6.74627E+00 3.31137E+00 0.00000E+00
 -1       140 6.35570E+00 3.69861E+00 0.00000E+00
 -1       141 5.92607E+00 4.12457E+00 0.00000E+00
 -1       142 5.45347E+00 4.59312E+00 0.00000E+00
 -1       143 4.93362E+00 5.10853E+00 0.00000E+00
 -1       144 4.36178E+00 5.67549E+00 0.00000E+00
 -1       145 3.73276E+00 6.29914E+00 0.00000E+00
 -1       146 3.04083E+00 6.98515E+00 0.00000E+00
 -1       147 2.27972E+00 7.73976E+00 0.00000E+00
 -1       148 1.44249E+00 8.56984E+00 0.00000E+00
 -1       149 5.21534E-01 9.48292E+00 0.00000E+00
 -1       150 7.54346E+00 4.22539E+00 0.00000E+00
 -1       151 7.10674E+00 4.55971E+00 0.00000E+00
 -1       152 6.62634E+00 4.92746E+00 0.00000E+00
 -1       153 6.09790E+00 5.33198E+00 0.00000E+00
 -1       154 5.51661E+00 5.77696E+00 0.00000E+00
 -1       155 4.87720E+00 6.26644E+00 0.00000E+00
 -1       156 4.17385E+00 6.80487E+00 0.00000E+00
 -1       157 3.40016E+00 7.39714E+00 0.00000E+00
 -1       158 2.54910E+00 8.04863E+00 0.00000E+00
 -1       159 1.61294E+00 8.76527E+00 0.00000E+00
 -1       160 5.83162E-01 9.55358E+00 0.00000E+00
 -1       161 8.27674E+00 5.33678E+00 0.00000E+00
 -1       162 7.79756E+00 5.60675E+00 0.00000E+00
 -1       163 7.27046E+00 5.90373E+00 0.00000E+00
 -1       164 6.69065E+00 6.23040E+00 0.00000E+00
 -1       165 6.05286E+00 6.58974E+00 0.00000E+00
 -1       166 5.35130E+00 6.98501E+00 0.00000E+00
 -1       167 4.57957E+00 7.41981E+00 0.00000E+00
 -1       168 3.73068E+00 7.89809E+00 0.00000E+00
 -1       169 2.79689E+00 8.42419E+00 0.00000E+00
 -1       170 1.76973E+00 9.00291E+00 0.00000E+00
 -1       171 6.39850E-01 9.63950E+00 0.00000E+00
 -1       172 8.89405E+00 6.66146E+00 0.00000E+00
 -1       173 8.37913E+00 6.85475E+00 0.00000E+00
 -1       174 7.81272E+00 7.06736E+00 0.00000E+00
 -1       175 7.18967E+00 7.30123E+00 0.00000E+00
 -1       176 6.50431E+00 7.55849E+00 0.00000E+00
 -1       177 5.75042E+00 7.84148E+00 0.00000E+00
 -1       178 4.92114E+00 8.15277E+00 0.00000E+00
 -1       179 4.00893E+00 8.49518E+00 0.00000E+00
 -1       180 3.00550E+00 8.87183E+00 0.00000E+00
 -1       181 1.90172E+00 9.28615E+00 0.00000E+00
 -1       182 6.87572E-01 9.74191E+00 0.00000E+00
 -1       183 9.32926E+00 8.20701E+00 0.00000E+00
 -1       184 8.78915E+00 8.31081E+00 0.00000E+00
 -1       185 8.19502E+00 8.42500E+00 0.00000E+00
 -1       186 7.54148E+00 8.55060E+00 0.00000E+00
 -1       187 6.82259E+00 8.68877E+00 0.00000E+00
 -1       188 6.03181E+00 8.84075E+00 0.00000E+00
 -1       189 5.16195E+00 9.00793E+00 0.00000E+00
 -1       190 4.20510E+00 9.19182E+00 0.00000E+00
 -1       191 3.15257E+00 9.39411E+00 0.00000E+00
 -1       192 1.99478E+00 9.61662E+00 0.00000E+00
 -1       193 7.21217E-01 9.86139E+00 0.00000E+00
 -1       194 4.00000E+01 0.00000E+00 0.00000E+00
 -1       195 0.00000E+00 0.00000E+00 0.00000E+00
 -1       196 0.00000E+00-2.00000E+01 0.00000E+00
 -1       197 4.00000E+01-2.00000E+01 0.00000E+00
 -1       199 3.54050E+01 0.00000E+00 0.00000E+00
 -1       200 3.13274E+01 0.00000E+00 0.00000E+00
 -1       201 2.76174E+01 0.00000E+00 0.00000E+00
 -1       202 2.42365E+01 0.00000E+00 0.00000E+00
 -1       203 2.11562E+01 0.00000E+00 0.00000E+00
 -1       204 1.83504E+01 0.00000E+00 0.00000E+00
 -1       205 1.57950E+01 0.00000E+00 0.00000E+00
 -1       206 1.34681E+01 0.00000E+00 0.00000E+00
 -1       207 1.13496E+01 0.00000E+00 0.00000E+00
 -1       208 9.42113E+00 0.00000E+00 0.00000E+00
 -1       209 7.66580E+00 0.00000E+00 0.00000E+00
 -1       210 6.06827E+00 0.00000E+00 0.00000E+00
 -1       211 4.61451E+00 0.00000E+00 0.00000E+00
 -1       212 3.29169E+00 0.00000E+00 0.00000E+00
 -1       213 2.08813E+00 0.00000E+00 0.00000E+00
 -1       214 1.00000E+00 0.00000E+00 0.00000E+00
 -1       215 0.00000E+00-1.00000E+00 0.00000E+00
 -1       216 0.00000E+00-2.10000E+00 0.00000E+00
 -1       217 0.00000E+00-3.31000E+00 0.00000E+00
 -1       218 0.00000E+00-4.64100E+00 0.00000E+00
 -1       219 0.00000E+00-6.10510E+00 0.00000E+00
 -1       220 0.00000E+00-7.71561E+00 0.00000E+00
 -1       221 0.00000E+00-9.48717E+00 0.00000E+00
 -1       222 0.00000E+00-1.14359E+01 0.00000E+00
 -1       223 0.00000E+00-1.35795E+01 0.00000E+00
 -1       224 0.00000E+00-1.59374E+01 0.00000E+00
 -1       225 0.00000E+00-1.85312E+01 0.00000E+00
 -1       226 1.00000E+00-2.00000E+01 0.00000E+00
 -1       227 2.08813E+00-2.00000E+01 0.00000E+00
 -1       228 3.29169E+00-2.00000E+01 0.00000E+00
 -1       229 4.61451E+00-2.00000E+01 0.00000E+00
 -1       230 6.06827E+00-2.00000E+01 0.00000E+00
 -1       231 7.66580E+00-2.00000E+01 0.00000E+00
 -1       232 9.42113E+00-2.00000E+01 0.00000E+00
 -1       233 1.13496E+01-2.00000E+01 0.00000E+00
 -1       234 1.34681E+01-2.00000E+01 0.00000E+00
 -1       235 1.57950E+01-2.00000E+01 0.00000E+00
 -1       236 1.83504E+01-2.00000E+01 0.00000E+00
 -1       237 2.11562E+01-2.00000E+01 0.00000E+00
 -1       238 2.42365E+01-2.00000E+01 0.00000E+00
 -1       239 2.76174E+01-2.00000E+01 0.00000E+00
 -1       240 3.13274E+01-2.00000E+01 0.00000E+00
 -1       241 3.54050E+01-2.00000E+01 0.00000E+00
 -1       242 4.00000E+01-1.85312E+01 0.00000E+00
 -1       243 4.00000E+01-1.59374E+01 0.00000E+00
 -1       244 4.00000E+01-1.35795E+01 0.00000E+00
 -1       245 4.00000E+01-1.14359E+01 0.00000E+00
 -1       246 4.00000E+01-9.48717E+00 0.00000E+00
 -1       247 4.00000E+01-7.71561E+00 0.00000E+00
 -1       248 4.00000E+01-6.10510E+00 0.00000E+00
 -1       249 4.00000E+01-4.64100E+00 0.00000E+00
 -1       250 4.00000E+01-3.31000E+00 0.00000E+00
 -1       251 4.00000E+01-2.10000E+00 0.00000E+00
 -1       252 4.00000E+01-1.00000E+00 0.00000E+00
 -1       253 3.54050E+01-1.00000E+00 0.00000E+00
 -1       254 3.54050E+01-2.10000E+00 0.00000E+00
 -1       255 3.54050E+01-3.31000E+00 0.00000E+00
 -1       256 3.54050E+01-4.64100E+00 0.00000E+00
 -1       257 3.54050E+01-6.10510E+00 0.00000E+00
 -1       258 3.54050E+01-7.71561E+00 0.00000E+00
 -1       259 3.54050E+01-9.48717E+00 0.00000E+00
 -1       260 3.54050E+01-1.14359E+01 0.00000E+00
 -1       261 3.54050E+01-1.35795E+01 0.00000E+00
 -1       262 3.54050E+01-1.59374E+01 0.00000E+00
 -1       263 3.54050E+01-1.85312E+01 0.00000E+00
 -1       264 3.13274E+01-1.00000E+00 0.00000E+00
 -1       265 3.13274E+01-2.10000E+00 0.00000E+00
 -1       266 3.13274E+01-3.31000E+00 0.00000E+00
 -1       267 3.13274E+01-4.64100E+00 0.00000E+00
 -1       268 3.13274E+01-6.10510E+00 0.00000E+00
 -1       269 3.13274E+01-7.71561E+00 0.00000E+00
 -1       270 3.13274E+01-9.48717E+00 0.00000E+00
 -1       271 3.13274E+01-1.14359E+01 0.00000E+00
 -1       272 3.13274E+01-1.35795E+01 0.00000E+00
 -1       273 3.13274E+01-1.59374E+01 0.00000E+00
 -1       274 3.13274E+01-1.85312E+01 0.00000E+00
 -1       275 2.76174E+01-1.00000E+00 0.00000E+00
 -1       276 2.76174E+01-2.10000E+00 0.00000E+00
 -1       277 2.76174E+01-3.31000E+00 0.00000E+00
 -1       278 2.76174E+01-4.64100E+00 0.00000E+00
 -1       279 2.76174E+01-6.10510E+00 0.00000E+00
 -1       280 2.76174E+01-7.71561E+00 0.00000E+00
 -1       281 2.76174E+01-9.48717E+00 0.00000E+00
 -1       282 2.76174E+01-1.14359E+01 0.00000E+00
 -1       283 2.76174E+01-1.35795E+01 0.00000E+00
 -1       284 2.76174E+01-1.59374E+01 0.00000E+00
 -1       285 2.76174E+01-1.85312E+01 0.00000E+00
 -1       286 2.42365E+01-1.00000E+00 0.00000E+00
 -1       287 2.42365E+01-2.10000E+00 0.00000E+00
 -1       288 2.42365E+01-3.31000E+00 0.00000E+00
 -1       289 2.42365E+01-4.64100E+00 0.00000E+00
 -1       290 2.42365E+01-6.10510E+00 0.00000E+00
 -1       291 2.42365E+01-7.71561E+00 0.00000E+00
 -1       292 2.42365E+01-9.48717E+00 0.00000E+00
 -1       293 2.42365E+01-1.14359E+01 0.00000E+00
 -1       294 2.42365E+01-1.35795E+01 0.00000E+00
 -1       295 2.42365E+01-1.59374E+01 0.00000E+00
 -1       296 2.42365E+01-1.85312E+01 0.00000E+00
 -1       297 2.11562E+01-1.00000E+00 0.00000E+00
 -1       298 2.11562E+01-2.10000E+00 0.00000E+00
 -1       299 2.11562E+01-3.31000E+00 0.00000E+00
 -1       300 2.11562E+01-4.64100E+00 0.00000E+00
 -1       301 2.11562E+01-6.10510E+00 0.00000E+00
 -1       302 2.11562E+01-7.71561E+00 0.00000E+00
 -1       303 2.11562E+01-9.48717E+00 0.00000E+00
 -1       304 2.11562E+01-1.14359E+01 0.00000E+00
 -1       305 2.11562E+01-1.35795E+01 0.00000E+00
 -1       306 2.11562E+01-1.59374E+01 0.00000E+00
 -1       307 2.11562E+01-1.85312E+01 0.00000E+00
 -1       308 1.83504E+01-1.00000E+00 0.00000E+00
 -1       309 1.83504E+01-2.10000E+00 0.00000E+00
 -1       310 1.83504E+01-3.31000E+00 0.00000E+00
 -1       311 1.83504E+01-4.64100E+00 0.00000E+00
 -1       312 1.83504E+01-6.10510E+00 0.00000E+00
 -1       313 1.83504E+01-7.71561E+00 0.00000E+00
 -1       314 1.83504E+01-9.48717E+00 0.00000E+00
 -1       315 1.83504E+01-1.14359E+01 0.00000E+00
 -1       316 1.83504E+01-1.35795E+01 0.00000E+00
 -1       317 1.83504E+01-1.59374E+01 0.00000E+00
 -1       318 1.83504E+01-1.85312E+01 0.00000E+00
 -1       319 1.57950E+01-1.00000E+00 0.00000E+00
 -1       320 1.57950E+01-2.10000E+00 0.00000E+00
 -1       321 1.57950E+01-3.31000E+00 0.00000E+00
 -1       322 1.57950E+01-4.64100E+00 0.00000E+00
 -1       323 1.57950E+01-6.10510E+00 0.00000E+00
 -1       324 1.57950E+01-7.71561E+00 0.00000E+00
 -1       325 1.57950E+01-9.48717E+00 0.00000E+00
 -1       326 1.57950E+01-1.14359E+01 0.00000E+00
 -1       327 1.57950E+01-1.35795E+01 0.00000E+00
 -1       328 1.57950E+01-1.59374E+01 0.00000E+00
 -1       329 1.57950E+01-1.85312E+01 0.00000E+00
 -1       330 1.34681E+01-1.00000E+00 0.00000E+00
 -1       331 1.34681E+01-2.10000E+00 0.00000E+00
 -1       332 1.34681E+01-3.31000E+00 0.00000E+00
 -1       333 1.34681E+01-4.64100E+00 0.00000E+00
 -1       334 1.34681E+01-6.10510E+00 0.00000E+00
 -1       335 1.34681E+01-7.71561E+00 0.00000E+00
 -1       336 1.34681E+01-9.48717E+00 0.00000E+00
 -1       337 1.34681E+01-1.14359E+01 0.00000E+00
 -1       338 1.34681E+01-1.35795E+01 0.00000E+00
 -1       339 1.34681E+01-1.59374E+01 0.00000E+00
 -1       340 1.34681E+01-1.85312E+01 0.00000E+00
 -1       341 1.13496E+01-1.00000E+00 0.00000E+00
 -1       342 1.13496E+01-2.10000E+00 0.00000E+00
 -1       343 1.13496E+01-3.31000E+00 0.00000E+00
 -1       344 1.13496E+01-4.64100E+00 0.00000E+00
 -1       345 1.13496E+01-6.10510E+00 0.00000E+00
 -1       346 1.13496E+01-7.71561E+00 0.00000E+00
 -1       347 1.13496E+01-9.48717E+00 0.00000E+00
 -1       348 1.13496E+01-1.14359E+01 0.00000E+00
 -1       349 1.13496E+01-1.35795E+01 0.00000E+00
 -1       350 1.13496E+01-1.59374E+01 0.00000E+00
 -1       351 1.13496E+01-1.85312E+01 0.00000E+00
 -1       352 9.42113E+00-1.00000E+00 0.00000E+00
 -1       353 9.42113E+00-2.10000E+00 0.00000E+00
 -1       354 9.42113E+00-3.31000E+00 0.00000E+00
 -1       355 9.42113E+00-4.64100E+00 0.00000E+00
 -1       356 9.42113E+00-6.10510E+00 0.00000E+00
 -1       357 9.42113E+00-7.71561E+00 0.00000E+00
 -1       358 9.42113E+00-9.48717E+00 0.00000E+00
 -1       359 9.42113E+00-1.14359E+01 0.00000E+00
 -1       360 9.42113E+00-1.35795E+01 0.00000E+00
 -1       361 9.42113E+00-1.59374E+01 0.00000E+00
 -1       362 9.42113E+00-1.85312E+01 0.00000E+00
 -1       363 7.66580E+00-1.00000E+00 0.00000E+00
 -1       364 7.66580E+00-2.10000E+00 0.00000E+00
 -1       365 7.66580E+00-3.31000E+00 0.00000E+00
 -1       366 7.66580E+00-4.64100E+00 0.00000E+00
 -1       367 7.66580E+00-6.10510E+00 0.00000E+00
 -1       368 7.66580E+00-7.71561E+00 0.00000E+00
 -1       369 7.66580E+00-9.48717E+00 0.00000E+00
 -1       370 7.66580E+00-1.14359E+01 0.00000E+00
 -1       371 7.66580E+00-1.35795E+01 0.00000E+00
 -1       372 7.66580E+00-1.59374E+01 0.00000E+00
 -1       373 7.66580E+00-1.85312E+01 0.00000E+00
 -1       374 6.06827E+00-1.00000E+00 0.00000E+00
 -1       375 6.06827E+00-2.10000E+00 0.00000E+00
 -1       376 6.06827E+00-3.31000E+00 0.00000E+00
 -1       377 6.06827E+00-4.64100E+00 0.00000E+00
 -1       378 6.06827E+00-6.10510E+00 0.00000E+00
 -1       379 6.06827E+00-7.71561E+00 0.00000E+00
 -1       380 6.06827E+00-9.48717E+00 0.00000E+00
 -1       381 6.06827E+00-1.14359E+01 0.00000E+00
 -1       382 6.06827E+00-1.35795E+01 0.00000E+00
 -1       383 6.06827E+00-1.59374E+01 0.00000E+00
 -1       384 6.06827E+00-1.85312E+01 0.00000E+00
 -1       385 4.61451E+00-1.00000E+00 0.00000E+00
 -1       386 4.61451E+00-2.10000E+00 0.00000E+00
 -1       387 4.61451E+00-3.31000E+00 0.00000E+00
 -1       388 4.61451E+00-4.64100E+00 0.00000E+00
 -1       389 4.61451E+00-6.10510E+00 0.00000E+00
 -1       390 4.61451E+00-7.71561E+00 0.00000E+00
 -1       391 4.61451E+00-9.48717E+00 0.00000E+00
 -1       392 4.61451E+00-1.14359E+01 0.00000E+00
 -1       393 4.61451E+00-1.35795E+01 0.00000E+00
 -1       394 4.61451E+00-1.59374E+01 0.00000E+00
 -1       395 4.61451E+00-1.85312E+01 0.00000E+00
 -1       396 3.29169E+00-1.00000E+00 0.00000E+00
 -1       397 3.29169E+00-2.10000E+00 0.00000E+00
 -1       398 3.29169E+00-3.31000E+00 0.00000E+00
 -1       399 3.29169E+00-4.64100E+00 0.00000E+00
 -1       400 3.29169E+00-6.10510E+00 0.00000E+00
 -1       401 3.29169E+00-7.71561E+00 0.00000E+00
 -1       402 3.29169E+00-9.48717E+00 0.00000E+00
 -1       403 3.29169E+00-1.14359E+01 0.00000E+00
 -1       404 3.29169E+00-1.35795E+01 0.00000E+00
 -1       405 3.29169E+00-1.59374E+01 0.00000E+00
 -1       406 3.29169E+00-1.85312E+01 0.00000E+00
 -1       407 2.08813E+00-1.00000E+00 0.00000E+00
 -1       408 2.08813E+00-2.10000E+00 0.00000E+00
 -1       409 2.08813E+00-3.31000E+00 0.00000E+00
 -1       410 2.08813E+00-4.64100E+00 0.00000E+00
 -1       411 2.08813E+00-6.10510E+00 0.00000E+00
 -1       412 2.08813E+00-7.71561E+00 0.00000E+00
 -1       413 2.08813E+00-9.48717E+00 0.00000E+00
 -1       414 2.08813E+00-1.14359E+01 0.00000E+00
 -1       415 2.08813E+00-1.35795E+01 0.00000E+00
 -1       416 2.08813E+00-1.59374E+01 0.00000E+00
 -1       417 2.08813E+00-1.85312E+01 0.00000E+00
 -1       418 1.00000E+00-1.00000E+00 0.00000E+00
 -1       419 1.00000E+00-2.10000E+00 0.00000E+00
 -1       420 1.00000E+00-3.31000E+00 0.00000E+00
 -1       421 1.00000E+00-4.64100E+00 0.00000E+00
 -1       422 1.00000E+00-6.10510E+00 0.00000E+00
 -1       423 1.00000E+00-7.71561E+00 0.00000E+00
 -1       424 1.00000E+00-9.48717E+00 0.00000E+00
 -1       425 1.00000E+00-1.14359E+01 0.00000E+00
 -1       426 1.00000E+00-1.35795E+01 0.00000E+00
 -1       427 1.00000E+00-1.59374E+01 0.00000E+00
 -1       428 1.00000E+00-1.85312E+01 0.00000E+00
 -1       429 2.49974E-01 3.12484E-03 0.00000E+00
 -1       430 4.87297E-01 2.62185E-01 0.00000E+00
 -1       431 2.37401E-01 5.05936E-01 0.00000E+00
 -1       432 0.00000E+00 2.50000E-01 0.00000E+00
 -1       433 4.61058E-01 7.86529E-01 0.00000E+00
 -1       434 2.23657E-01 1.05559E+00 0.00000E+00
 -1       435 0.00000E+00 7.75000E-01 0.00000E+00
 -1       436 4.32195E-01 1.36331E+00 0.00000E+00
 -1       437 2.08538E-01 1.66021E+00 0.00000E+00
 -1       438 0.00000E+00 1.35250E+00 0.00000E+00
 -1       439 4.00446E-01 1.99776E+00 0.00000E+00
 -1       440 1.91908E-01 2.32530E+00 0.00000E+00
 -1       441 0.00000E+00 1.98775E+00 0.00000E+00
 -1       442 3.65521E-01 2.69566E+00 0.00000E+00
 -1       443 1.73614E-01 3.05689E+00 0.00000E+00
 -1       444 0.00000E+00 2.68653E+00 0.00000E+00
 -1       445 3.27105E-01 3.46336E+00 0.00000E+00
 -1       446 1.53491E-01 3.86164E+00 0.00000E+00
 -1       447 0.00000E+00 3.45518E+00 0.00000E+00
 -1       448 2.84847E-01 4.30782E+00 0.00000E+00
 -1       449 1.31356E-01 4.74687E+00 0.00000E+00
 -1       450 0.00000E+00 4.30070E+00 0.00000E+00
 -1       451 2.38362E-01 5.23672E+00 0.00000E+00
 -1       452 1.07007E-01 5.72062E+00 0.00000E+00
 -1       453 0.00000E+00 5.23076E+00 0.00000E+00
 -1       454 1.87230E-01 6.25852E+00 0.00000E+00
 -1       455 8.02231E-02 6.79174E+00 0.00000E+00
 -1       456 0.00000E+00 6.25384E+00 0.00000E+00
 -1       457 1.30984E-01 7.38250E+00 0.00000E+00
 -1       458 5.07610E-02 7.96998E+00 0.00000E+00
 -1       459 0.00000E+00 7.37923E+00 0.00000E+00
 -1       460 6.91138E-02 8.61888E+00 0.00000E+00
 -1       461 1.83528E-02 9.26604E+00 0.00000E+00
 -1       462 0.00000E+00 8.61715E+00 0.00000E+00
 -1       463 1.83528E-02 9.63325E+00 0.00000E+00
 -1       464 0.00000E+00 9.63279E+00 0.00000E+00
 -1       465 7.71241E-01 2.97850E-02 0.00000E+00
 -1       466 1.01607E+00 3.03088E-01 0.00000E+00
 -1       467 7.32408E-01 5.31799E-01 0.00000E+00
 -1       468 9.61355E-01 8.25229E-01 0.00000E+00
 -1       469 6.90005E-01 1.07996E+00 0.00000E+00
 -1       470 9.01173E-01 1.39958E+00 0.00000E+00
 -1       471 6.43362E-01 1.68293E+00 0.00000E+00
 -1       472 8.34972E-01 2.03138E+00 0.00000E+00
 -1       473 5.92055E-01 2.34621E+00 0.00000E+00
 -1       474 7.62151E-01 2.72635E+00 0.00000E+00
 -1       475 5.35618E-01 3.07581E+00 0.00000E+00
 -1       476 6.82049E-01 3.49081E+00 0.00000E+00
 -1       477 4.73536E-01 3.87836E+00 0.00000E+00
 -1       478 5.93936E-01 4.33173E+00 0.00000E+00
 -1       479 4.05246E-01 4.76118E+00 0.00000E+00
 -1       480 4.97011E-01 5.25673E+00 0.00000E+00
 -1       481 3.30128E-01 5.73228E+00 0.00000E+00
 -1       482 3.90395E-01 6.27424E+00 0.00000E+00
 -1       483 2.47497E-01 6.80048E+00 0.00000E+00
 -1       484 2.73116E-01 7.39350E+00 0.00000E+00
 -1       485 1.56603E-01 7.97551E+00 0.00000E+00
 -1       486 1.44110E-01 8.62468E+00 0.00000E+00
 -1       487 5.66202E-02 9.26804E+00 0.00000E+00
 -1       488 3.82675E-02 9.63479E+00 0.00000E+00
 -1       489 1.34084E+00 9.03005E-02 0.00000E+00
 -1       490 1.59739E+00 3.81744E-01 0.00000E+00
 -1       491 1.27322E+00 5.90046E-01 0.00000E+00
 -1       492 1.51138E+00 8.99650E-01 0.00000E+00
 -1       493 1.19951E+00 1.13483E+00 0.00000E+00
 -1       494 1.41676E+00 1.46935E+00 0.00000E+00
 -1       495 1.11843E+00 1.73410E+00 0.00000E+00
 -1       496 1.31269E+00 2.09601E+00 0.00000E+00
 -1       497 1.02923E+00 2.39329E+00 0.00000E+00
 -1       498 1.19820E+00 2.78535E+00 0.00000E+00
 -1       499 9.31121E-01 3.11840E+00 0.00000E+00
 -1       500 1.07227E+00 3.54361E+00 0.00000E+00
 -1       501 8.23198E-01 3.91602E+00 0.00000E+00
 -1       502 9.33746E-01 4.37771E+00 0.00000E+00
 -1       503 7.04483E-01 4.79341E+00 0.00000E+00
 -1       504 7.81368E-01 5.29521E+00 0.00000E+00
 -1       505 5.73896E-01 5.75853E+00 0.00000E+00
 -1       506 6.13752E-01 6.30446E+00 0.00000E+00
 -1       507 4.30250E-01 6.82017E+00 0.00000E+00
 -1       508 4.29375E-01 7.41464E+00 0.00000E+00
 -1       509 2.72240E-01 7.98797E+00 0.00000E+00
 -1       510 2.26560E-01 8.63583E+00 0.00000E+00
 -1       511 9.84290E-02 9.27254E+00 0.00000E+00
 -1       512 6.01616E-02 9.63775E+00 0.00000E+00
 -1       513 1.96361E+00 1.94684E-01 0.00000E+00
 -1       514 2.22956E+00 5.08343E-01 0.00000E+00
 -1       515 1.86441E+00 6.90042E-01 0.00000E+00
 -1       516 2.10951E+00 1.01943E+00 0.00000E+00
 -1       517 1.75647E+00 1.22904E+00 0.00000E+00
 -1       518 1.97745E+00 1.58163E+00 0.00000E+00
 -1       519 1.63774E+00 1.82194E+00 0.00000E+00
 -1       520 1.83218E+00 2.20005E+00 0.00000E+00
 -1       521 1.50713E+00 2.47412E+00 0.00000E+00
 -1       522 1.67239E+00 2.88031E+00 0.00000E+00
 -1       523 1.36346E+00 3.19153E+00 0.00000E+00
 -1       524 1.49662E+00 3.62859E+00 0.00000E+00
 -1       525 1.20543E+00 3.98068E+00 0.00000E+00
 -1       526 1.30328E+00 4.45171E+00 0.00000E+00
 -1       527 1.03159E+00 4.84874E+00 0.00000E+00
 -1       528 1.09060E+00 5.35713E+00 0.00000E+00
 -1       529 8.40370E-01 5.80360E+00 0.00000E+00
 -1       530 8.56645E-01 6.35310E+00 0.00000E+00
 -1       531 6.30027E-01 6.85396E+00 0.00000E+00
 -1       532 5.99300E-01 7.44867E+00 0.00000E+00
 -1       533 3.98648E-01 8.00935E+00 0.00000E+00
 -1       534 3.16221E-01 8.65379E+00 0.00000E+00
 -1       535 1.44132E-01 9.28028E+00 0.00000E+00
 -1       536 8.39706E-02 9.64252E+00 0.00000E+00
 -1       537 2.63893E+00 3.54481E-01 0.00000E+00
 -1       538 2.91296E+00 6.95314E-01 0.00000E+00
 -1       539 2.50533E+00 8.42807E-01 0.00000E+00
 -1       540 2.75611E+00 1.19634E+00 0.00000E+00
 -1       541 2.36028E+00 1.37296E+00 0.00000E+00
 -1       542 2.58357E+00 1.74746E+00 0.00000E+00
 -1       543 2.20073E+00 1.95613E+00 0.00000E+00
 -1       544 2.39378E+00 2.35370E+00 0.00000E+00
 -1       545 2.02523E+00 2.59761E+00 0.00000E+00
 -1       546 2.18501E+00 3.02056E+00 0.00000E+00
 -1       547 1.83217E+00 3.30325E+00 0.00000E+00
 -1       548 1.95536E+00 3.75410E+00 0.00000E+00
 -1       549 1.61981E+00 4.07945E+00 0.00000E+00
 -1       550 1.70275E+00 4.56100E+00 0.00000E+00
 -1       551 1.38622E+00 4.93326E+00 0.00000E+00
 -1       552 1.42488E+00 5.44859E+00 0.00000E+00
 -1       553 1.12926E+00 5.87246E+00 0.00000E+00
 -1       554 1.11922E+00 6.42494E+00 0.00000E+00
 -1       555 8.46607E-01 6.90558E+00 0.00000E+00
 -1       556 7.82995E-01 7.49892E+00 0.00000E+00
 -1       557 5.35689E-01 8.04201E+00 0.00000E+00
 -1       558 4.13148E-01 8.68031E+00 0.00000E+00
 -1       559 1.93679E-01 9.29208E+00 0.00000E+00
 -1       560 1.09709E-01 9.64956E+00 0.00000E+00
 -1       561 3.36628E+00 5.83623E-01 0.00000E+00
 -1       562 3.64605E+00 9.57390E-01 0.00000E+00
 -1       563 3.19542E+00 1.06157E+00 0.00000E+00
 -1       564 3.44973E+00 1.44430E+00 0.00000E+00
 -1       565 3.01042E+00 1.57906E+00 0.00000E+00
 -1       566 3.23377E+00 1.97990E+00 0.00000E+00
 -1       567 2.80692E+00 2.14830E+00 0.00000E+00
 -1       568 2.99621E+00 2.56906E+00 0.00000E+00
 -1       569 2.58307E+00 2.77446E+00 0.00000E+00
 -1       570 2.73491E+00 3.21714E+00 0.00000E+00
 -1       571 2.33684E+00 3.46323E+00 0.00000E+00
 -1       572 2.44746E+00 3.93002E+00 0.00000E+00
 -1       573 2.06599E+00 4.22089E+00 0.00000E+00
 -1       574 2.13128E+00 4.71420E+00 0.00000E+00
 -1       575 1.76805E+00 5.05431E+00 0.00000E+00
 -1       576 1.78348E+00 5.57679E+00 0.00000E+00
 -1       577 1.44031E+00 5.97107E+00 0.00000E+00
 -1       578 1.40089E+00 6.52564E+00 0.00000E+00
 -1       579 1.07980E+00 6.97951E+00 0.00000E+00
 -1       580 9.80050E-01 7.56937E+00 0.00000E+00
 -1       581 6.83243E-01 8.08879E+00 0.00000E+00
 -1       582 5.17123E-01 8.71748E+00 0.00000E+00
 -1       583 2.47028E-01 9.30900E+00 0.00000E+00