    1C
    1UHash: PXJD0WWr, Date: 03/11/2021, Unit system: MM_TON_S_C         
    1UUSER                                                              
    1UDATE              11.march.2021                                   
    1UTIME              20:39:43                                        
    1UHOST                                                              
    1UPGM               CalculiX                                        
    1UVERSION           Version 2.10                             
    1UCOMPILETIME       Sa 5. Mär 12:23:33 CET 2016                    
    1UDIR                                                               
    1UDBN                                                               
    1UMAT    1RUBBER                                                    
    2C                           162                                     1
 -1       719 4.80000E+01 4.40000E+01 0.00000E+00
 -1       720 4.80000E+01 4.40000E+01 5.00000E+00
 -1       721 0.00000E+00 0.00000E+00 0.00000E+00
 -1       722 0.00000E+00 0.00000E+00 5.00000E+00
 -1       723 4.80000E+01 6.00000E+01 0.00000E+00
 -1       724 4.80000E+01 6.00000E+01 5.00000E+00
 -1       725 0.00000E+00 4.40000E+01 0.00000E+00
 -1       726 0.00000E+00 4.40000E+01 5.00000E+00
 -1       727 4.20000E+01 3.85000E+01 0.00000E+00
 -1       728 3.60000E+01 3.30000E+01 0.00000E+00
 -1       729 3.00000E+01 2.75000E+01 0.00000E+00
 -1       730 2.40000E+01 2.20000E+01 0.00000E+00
 -1       731 1.80000E+01 1.65000E+01 0.00000E+00
 -1       732 1.20000E+01 1.10000E+01 0.00000E+00
 -1       733 6.00000E+00 5.50000E+00 0.00000E+00
 -1       734 4.20000E+01 3.85000E+01 5.00000E+00
 -1       735 3.60000E+01 3.30000E+01 5.00000E+00
 -1       736 3.00000E+01 2.75000E+01 5.00000E+00
 -1       737 2.40000E+01 2.20000E+01 5.00000E+00
 -1       738 1.80000E+01 1.65000E+01 5.00000E+00
 -1       739 1.20000E+01 1.10000E+01 5.00000E+00
 -1       740 6.00000E+00 5.50000E+00 5.00000E+00
 -1       741 4.80000E+01 5.80000E+01 0.00000E+00
 -1       742 4.80000E+01 5.60000E+01 0.00000E+00
 -1       743 4.80000E+01 5.40000E+01 0.00000E+00
 -1       744 4.80000E+01 5.20000E+01 0.00000E+00
 -1       745 4.80000E+01 5.00000E+01 0.00000E+00
 -1       746 4.80000E+01 4.80000E+01 0.00000E+00
 -1       747 4.80000E+01 4.60000E+01 0.00000E+00
 -1       748 4.80000E+01 5.80000E+01 5.00000E+00
 -1       749 4.80000E+01 5.60000E+01 5.00000E+00
 -1       750 4.80000E+01 5.40000E+01 5.00000E+00
 -1       751 4.80000E+01 5.20000E+01 5.00000E+00
 -1       752 4.80000E+01 5.00000E+01 5.00000E+00
 -1       753 4.80000E+01 4.80000E+01 5.00000E+00
 -1       754 4.80000E+01 4.60000E+01 5.00000E+00
 -1       755 6.00000E+00 4.60000E+01 0.00000E+00
 -1       756 1.20000E+01 4.80000E+01 0.00000E+00
 -1       757 1.80000E+01 5.00000E+01 0.00000E+00
 -1       758 2.40000E+01 5.20000E+01 0.00000E+00
 -1       759 3.00000E+01 5.40000E+01 0.00000E+00
 -1       760 3.60000E+01 5.60000E+01 0.00000E+00
 -1       761 4.20000E+01 5.80000E+01 0.00000E+00
 -1       762 6.00000E+00 4.60000E+01 5.00000E+00
 -1       763 1.20000E+01 4.80000E+01 5.00000E+00
 -1       764 1.80000E+01 5.00000E+01 5.00000E+00
 -1       765 2.40000E+01 5.20000E+01 5.00000E+00
 -1       766 3.00000E+01 5.40000E+01 5.00000E+00
 -1       767 3.60000E+01 5.60000E+01 5.00000E+00
 -1       768 4.20000E+01 5.80000E+01 5.00000E+00
 -1       769 0.00000E+00 5.50000E+00 0.00000E+00
 -1       770 0.00000E+00 1.10000E+01 0.00000E+00
 -1       771 0.00000E+00 1.65000E+01 0.00000E+00
 -1       772 0.00000E+00 2.20000E+01 0.00000E+00
 -1       773 0.00000E+00 2.75000E+01 0.00000E+00
 -1       774 0.00000E+00 3.30000E+01 0.00000E+00
 -1       775 0.00000E+00 3.85000E+01 0.00000E+00
 -1       776 0.00000E+00 5.50000E+00 5.00000E+00
 -1       777 0.00000E+00 1.10000E+01 5.00000E+00
 -1       778 0.00000E+00 1.65000E+01 5.00000E+00
 -1       779 0.00000E+00 2.20000E+01 5.00000E+00
 -1       780 0.00000E+00 2.75000E+01 5.00000E+00
 -1       781 0.00000E+00 3.30000E+01 5.00000E+00
 -1       782 0.00000E+00 3.85000E+01 5.00000E+00
 -1       783 4.20000E+01 4.09375E+01 0.00000E+00
 -1       784 4.20000E+01 4.33750E+01 0.00000E+00
 -1       785 4.20000E+01 4.58125E+01 0.00000E+00
 -1       786 4.20000E+01 4.82500E+01 0.00000E+00
 -1       787 4.20000E+01 5.06875E+01 0.00000E+00
 -1       788 4.20000E+01 5.31250E+01 0.00000E+00
 -1       789 4.20000E+01 5.55625E+01 0.00000E+00
 -1       790 3.60000E+01 3.58750E+01 0.00000E+00
 -1       791 3.60000E+01 3.87500E+01 0.00000E+00
 -1       792 3.60000E+01 4.16250E+01 0.00000E+00
 -1       793 3.60000E+01 4.45000E+01 0.00000E+00
 -1       794 3.60000E+01 4.73750E+01 0.00000E+00
 -1       795 3.60000E+01 5.02500E+01 0.00000E+00
 -1       796 3.60000E+01 5.31250E+01 0.00000E+00
 -1       797 3.00000E+01 3.08125E+01 0.00000E+00
 -1       798 3.00000E+01 3.41250E+01 0.00000E+00
 -1       799 3.00000E+01 3.74375E+01 0.00000E+00
 -1       800 3.00000E+01 4.07500E+01 0.00000E+00
 -1       801 3.00000E+01 4.40625E+01 0.00000E+00
 -1       802 3.00000E+01 4.73750E+01 0.00000E+00
 -1       803 3.00000E+01 5.06875E+01 0.00000E+00
 -1       804 2.40000E+01 2.57500E+01 0.00000E+00
 -1       805 2.40000E+01 2.95000E+01 0.00000E+00
 -1       806 2.40000E+01 3.32500E+01 0.00000E+00
 -1       807 2.40000E+01 3.70000E+01 0.00000E+00
 -1       808 2.40000E+01 4.07500E+01 0.00000E+00
 -1       809 2.40000E+01 4.45000E+01 0.00000E+00
 -1       810 2.40000E+01 4.82500E+01 0.00000E+00
 -1       811 1.80000E+01 2.06875E+01 0.00000E+00
 -1       812 1.80000E+01 2.48750E+01 0.00000E+00
 -1       813 1.80000E+01 2.90625E+01 0.00000E+00
 -1       814 1.80000E+01 3.32500E+01 0.00000E+00
 -1       815 1.80000E+01 3.74375E+01 0.00000E+00
 -1       816 1.80000E+01 4.16250E+01 0.00000E+00
 -1       817 1.80000E+01 4.58125E+01 0.00000E+00
 -1       818 1.20000E+01 1.56250E+01 0.00000E+00
 -1       819 1.20000E+01 2.02500E+01 0.00000E+00
 -1       820 1.20000E+01 2.48750E+01 0.00000E+00
 -1       821 1.20000E+01 2.95000E+01 0.00000E+00
 -1       822 1.20000E+01 3.41250E+01 0.00000E+00
 -1       823 1.20000E+01 3.87500E+01 0.00000E+00
 -1       824 1.20000E+01 4.33750E+01 0.00000E+00
 -1       825 6.00000E+00 1.05625E+01 0.00000E+00
 -1       826 6.00000E+00 1.56250E+01 0.00000E+00
 -1       827 6.00000E+00 2.06875E+01 0.00000E+00
 -1       828 6.00000E+00 2.57500E+01 0.00000E+00
 -1       829 6.00000E+00 3.08125E+01 0.00000E+00
 -1       830 6.00000E+00 3.58750E+01 0.00000E+00
 -1       831 6.00000E+00 4.09375E+01 0.00000E+00
 -1       832 6.00000E+00 1.05625E+01 5.00000E+00
 -1       833 6.00000E+00 1.56250E+01 5.00000E+00
 -1       834 6.00000E+00 2.06875E+01 5.00000E+00
 -1       835 6.00000E+00 2.57500E+01 5.00000E+00
 -1       836 6.00000E+00 3.08125E+01 5.00000E+00
 -1       837 6.00000E+00 3.58750E+01 5.00000E+00
 -1       838 6.00000E+00 4.09375E+01 5.00000E+00
 -1       839 1.20000E+01 1.56250E+01 5.00000E+00
 -1       840 1.20000E+01 2.02500E+01 5.00000E+00
 -1       841 1.20000E+01 2.48750E+01 5.00000E+00
 -1       842 1.20000E+01 2.95000E+01 5.00000E+00
 -1       843 1.20000E+01 3.41250E+01 5.00000E+00
 -1       844 1.20000E+01 3.87500E+01 5.00000E+00
 -1       845 1.20000E+01 4.33750E+01 5.00000E+00
 -1       846 1.80000E+01 2.06875E+01 5.00000E+00
 -1       847 1.80000E+01 2.48750E+01 5.00000E+00
 -1       848 1.80000E+01 2.90625E+01 5.00000E+00
 -1       849 1.80000E+01 3.32500E+01 5.00000E+00
 -1       850 1.80000E+01 3.74375E+01 5.00000E+00
 -1       851 1.80000E+01 4.16250E+01 5.00000E+00
 -1       852 1.80000E+01 4.58125E+01 5.00000E+00
 -1       853 2.40000E+01 2.57500E+01 5.00000E+00
 -1       854 2.40000E+01 2.95000E+01 5.00000E+00
 -1       855 2.40000E+01 3.32500E+01 5.00000E+00
 -1       856 2.40000E+01 3.70000E+01 5.00000E+00
 -1       857 2.40000E+01 4.07500E+01 5.00000E+00
 -1       858 2.40000E+01 4.45000E+01 5.00000E+00
 -1       859 2.40000E+01 4.82500E+01 5.00000E+00
 -1       860 3.00000E+01 3.08125E+01 5.00000E+00
 -1       861 3.00000E+01 3.41250E+01 5.00000E+00
 -1       862 3.00000E+01 3.74375E+01 5.00000E+00
 -1       863 3.00000E+01 4.07500E+01 5.00000E+00
 -1       864 3.00000E+01 4.40625E+01 5.00000E+00
 -1       865 3.00000E+01 4.73750E+01 5.00000E+00
 -1       866 3.00000E+01 5.06875E+01 5.00000E+00
 -1       867 3.60000E+01 3.58750E+01 5.00000E+00
 -1       868 3.60000E+01 3.87500E+01 5.00000E+00
 -1       869 3.60000E+01 4.16250E+01 5.00000E+00
 -1       870 3.60000E+01 4.45000E+01 5.00000E+00
 -1       871 3.60000E+01 4.73750E+01 5.00000E+00
 -1       872 3.60000E+01 5.02500E+01 5.00000E+00
 -1       873 3.60000E+01 5.31250E+01 5.00000E+00
 -1       874 4.20000E+01 4.09375E+01 5.00000E+00
 -1       875 4.20000E+01 4.33750E+01 5.00000E+00
 -1       876 4.20000E+01 4.58125E+01 5.00000E+00
 -1       877 4.20000E+01 4.82500E+01 5.00000E+00
 -1       878 4.20000E+01 5.06875E+01 5.00000E+00
 -1       879 4.20000E+01 5.31250E+01 5.00000E+00
 -1       880 4.20000E+01 5.55625E+01 5.00000E+00
 -3
    3C                            64                                     1
 -1       568    1    0    1
 -2       720       719       727       734       754       747       783       874
 -1       569    1    0    1
 -2       754       747       783       874       753       746       784       875
 -1       570    1    0    1
 -2       753       746       784       875       752       745       785       876
 -1       571    1    0    1
 -2       752       745       785       876       751       744       786       877
 -1       572    1    0    1
 -2       751       744       786       877       750       743       787       878
 -1       573    1    0    1
 -2       750       743       787       878       749       742       788       879
 -1       574    1    0    1
 -2       749       742       788       879       748       741       789       880
 -1       575    1    0    1
 -2       748       741       789       880       724       723       761       768
 -1       576    1    0    1
 -2       734       727       728       735       874       783       790       867
 -1       577    1    0    1
 -2       874       783       790       867       875       784       791       868
 -1       578    1    0    1
 -2       875       784       791       868       876       785       792       869
 -1       579    1    0    1
 -2       876       785       792       869       877       786       793       870
 -1       580    1    0    1
 -2       877       786       793       870       878       787       794       871
 -1       581    1    0    1
 -2       878       787       794       871       879       788       795       872
 -1       582    1    0    1
 -2       879       788       795       872       880       789       796       873
 -1       583    1    0    1
 -2       880       789       796       873       768       761       760       767
 -1       584    1    0    1
 -2       735       728       729       736       867       790       797       860
 -1       585    1    0    1
 -2       867       790       797       860       868       791       798       861
 -1       586    1    0    1
 -2       868       791       798       861       869       792       799       862
 -1       587    1    0    1
 -2       869       792       799       862       870       793       800       863
 -1       588    1    0    1
 -2       870       793       800       863       871       794       801       864
 -1       589    1    0    1
 -2       871       794       801       864       872       795       802       865
 -1       590    1    0    1
 -2       872       795       802       865       873       796       803       866
 -1       591    1    0    1
 -2       873       796       803       866       767       760       759       766
 -1       592    1    0    1
 -2       736       729       730       737       860       797       804       853
 -1       593    1    0    1
 -2       860       797       804       853       861       798       805       854
 -1       594    1    0    1
 -2       861       798       805       854       862       799       806       855
 -1       595    1    0    1
 -2       862       799       806       855       863       800       807       856
 -1       596    1    0    1
 -2       863       800       807       856       864       801       808       857
 -1       597    1    0    1
 -2       864       801       808       857       865       802       809       858
 -1       598    1    0    1
 -2       865       802       809       858       866       803       810       859
 -1       599    1    0    1
 -2       866       803       810       859       766       759       758       765
 -1       600    1    0    1
 -2       737       730       731       738       853       804       811       846
 -1       601    1    0    1
 -2       853       804       811       846       854       805       812       847
 -1       602    1    0    1
 -2       854       805       812       847       855       806       813       848
 -1       603    1    0    1
 -2       855       806       813       848       856       807       814       849
 -1       604    1    0    1
 -2       856       807       814       849       857       808       815       850
 -1       605    1    0    1
 -2       857       808       815       850       858       809       816       851
 -1       606    1    0    1
 -2       858       809       816       851       859       810       817       852
 -1       607    1    0    1
 -2       859       810       817       852       765       758       757       764
 -1       608    1    0    1
 -2       738       731       732       739       846       811       818       839
 -1       609    1    0    1
 -2       846       811       818       839       847       812       819       840
 -1       610    1    0    1
 -2       847       812       819       840       848       813       820       841
 -1       611    1    0    1
 -2       848       813       820       841       849       814       821       842
 -1       612    1    0    1
 -2       849       814       821       842       850       815       822       843
 -1       613    1    0    1
 -2       850       815       822       843       851       816       823       844
 -1       614    1    0    1
 -2       851       816       823       844       852       817       824       845
 -1       615    1    0    1
 -2       852       817       824       845       764       757       756       763
 -1       616    1    0    1
 -2       739       732       733       740       839       818       825       832
 -1       617    1    0    1
 -2       839       818       825       832       840       819       826       833
 -1       618    1    0    1
 -2       840       819       826       833       841       820       827       834
 -1       619    1    0    1
 -2       841       820       827       834       842       821       828       835
 -1       620    1    0    1
 -2       842       821       828       835       843       822       829       836
 -1       621    1    0    1
 -2       843       822       829       836       844       823       830       837
 -1       622    1    0    1
 -2       844       823       830       837       845       824       831       838
 -1       623    1    0    1
 -2       845       824       831       838       763       756       755       762
 -1       624    1    0    1
 -2       740       733       721       722       832       825       769       776
 -1       625    1    0    1
 -2       832       825       769       776       833       826       770       777
 -1       626    1    0    1
 -2       833       826       770       777       834       827       771       778
 -1       627    1    0    1
 -2       834       827       771       778       835       828       772       779
 -1       628    1    0    1
 -2       835       828       772       779       836       829       773       780
 -1       629    1    0    1
 -2       836       829       773       780       837       830       774       781
 -1       630    1    0    1
 -2       837       830       774       781       838       831       775       782
 -1       631    1    0    1
 -2       838       831       775       782       762       755       725       726
 -3
    1PSTEP                         1           1           1          
  100CL  101 1.000000000         162                     0    1           1
 -4  DISP        4    1
 -5  D1          1    2    1    0
 -5  D2          1    2    2    0
 -5  D3          1    2    3    0
 -5  ALL         1    2    0    0    1ALL
 -1       719-5.48036E+00 2.72312E+01 0.00000E+00
 -1       720-5.48036E+00 2.72312E+01 0.00000E+00
 -1       721 0.00000E+00 0.00000E+00 0.00000E+00
 -1       722 0.00000E+00 0.00000E+00 0.00000E+00
 -1       723-2.06341E+01 2.87825E+01 0.00000E+00
 -1       724-2.06341E+01 2.87825E+01 0.00000E+00
 -1       725 0.00000E+00 0.00000E+00 0.00000E+00
 -1       726 0.00000E+00 0.00000E+00 0.00000E+00
 -1       727-1.57949E+00 2.04641E+01 0.00000E+00
 -1       728 7.69732E-01 1.45543E+01 0.00000E+00
 -1       729 1.87840E+00 9.77148E+00 0.00000E+00
 -1       730 2.02659E+00 6.14739E+00 0.00000E+00
 -1       731 1.55366E+00 3.63343E+00 0.00000E+00
 -1       732 8.64387E-01 2.02531E+00 0.00000E+00
 -1       733 3.03977E-01 9.13014E-01 0.00000E+00
 -1       734-1.57949E+00 2.04641E+01 0.00000E+00
 -1       735 7.69732E-01 1.45543E+01 0.00000E+00
 -1       736 1.87840E+00 9.77148E+00 0.00000E+00
 -1       737 2.02659E+00 6.14739E+00 0.00000E+00
 -1       738 1.55366E+00 3.63343E+00 0.00000E+00
 -1       739 8.64387E-01 2.02531E+00 0.00000E+00
 -1       740 3.03977E-01 9.13014E-01 0.00000E+00
 -1       741-1.82549E+01 2.87067E+01 0.00000E+00
 -1       742-1.60831E+01 2.85300E+01 0.00000E+00
 -1       743-1.40825E+01 2.82980E+01 0.00000E+00
 -1       744-1.22208E+01 2.80423E+01 0.00000E+00
 -1       745-1.04661E+01 2.77863E+01 0.00000E+00
 -1       746-8.78469E+00 2.75497E+01 0.00000E+00
 -1       747-7.13824E+00 2.73542E+01 0.00000E+00
 -1       748-1.82549E+01 2.87067E+01 0.00000E+00
 -1       749-1.60831E+01 2.85300E+01 0.00000E+00
 -1       750-1.40825E+01 2.82980E+01 0.00000E+00
 -1       751-1.22208E+01 2.80423E+01 0.00000E+00
 -1       752-1.04661E+01 2.77863E+01 0.00000E+00
 -1       753-8.78469E+00 2.75497E+01 0.00000E+00
 -1       754-7.13824E+00 2.73542E+01 0.00000E+00
 -1       755-2.50672E+00 1.13052E+00 0.00000E+00
 -1       756-4.85265E+00 2.49733E+00 0.00000E+00
 -1       757-7.20731E+00 4.59485E+00 0.00000E+00
 -1       758-9.72567E+00 7.45560E+00 0.00000E+00
 -1       759-1.24037E+01 1.12052E+01 0.00000E+00
 -1       760-1.51819E+01 1.59228E+01 0.00000E+00
 -1       761-1.79957E+01 2.16658E+01 0.00000E+00
 -1       762-2.50672E+00 1.13052E+00 0.00000E+00
 -1       763-4.85265E+00 2.49733E+00 0.00000E+00
 -1       764-7.20731E+00 4.59485E+00 0.00000E+00
 -1       765-9.72567E+00 7.45560E+00 0.00000E+00
 -1       766-1.24037E+01 1.12052E+01 0.00000E+00
 -1       767-1.51819E+01 1.59228E+01 0.00000E+00
 -1       768-1.79957E+01 2.16658E+01 0.00000E+00
 -1       769 0.00000E+00 0.00000E+00 0.00000E+00
 -1       770 0.00000E+00 0.00000E+00 0.00000E+00
 -1       771 0.00000E+00 0.00000E+00 0.00000E+00
 -1       772 0.00000E+00 0.00000E+00 0.00000E+00
 -1       773 0.00000E+00 0.00000E+00 0.00000E+00
 -1       774 0.00000E+00 0.00000E+00 0.00000E+00
 -1       775 0.00000E+00 0.00000E+00 0.00000E+00
 -1       776 0.00000E+00 0.00000E+00 0.00000E+00
 -1       777 0.00000E+00 0.00000E+00 0.00000E+00
 -1       778 0.00000E+00 0.00000E+00 0.00000E+00
 -1       779 0.00000E+00 0.00000E+00 0.00000E+00
 -1       780 0.00000E+00 0.00000E+00 0.00000E+00
 -1       781 0.00000E+00 0.00000E+00 0.00000E+00
 -1       782 0.00000E+00 0.00000E+00 0.00000E+00
 -1       783-3.25490E+00 2.06001E+01 0.00000E+00
 -1       784-4.99815E+00 2.07710E+01 0.00000E+00
 -1       785-6.80954E+00 2.09602E+01 0.00000E+00
 -1       786-8.71173E+00 2.11497E+01 0.00000E+00
 -1       787-1.07392E+01 2.13238E+01 0.00000E+00
 -1       788-1.29330E+01 2.14706E+01 0.00000E+00
 -1       789-1.53369E+01 2.15836E+01 0.00000E+00
 -1       790-5.33043E-01 1.47112E+01 0.00000E+00
 -1       791-2.06828E+00 1.48758E+01 0.00000E+00
 -1       792-3.78831E+00 1.50568E+01 0.00000E+00
 -1       793-5.67453E+00 1.52463E+01 0.00000E+00
 -1       794-7.73201E+00 1.54325E+01 0.00000E+00
 -1       795-9.98240E+00 1.56063E+01 0.00000E+00
 -1       796-1.24565E+01 1.57665E+01 0.00000E+00
 -1       797 1.03277E+00 9.94262E+00 0.00000E+00
 -1       798-1.03876E-01 1.00948E+01 0.00000E+00
 -1       799-1.51884E+00 1.02490E+01 0.00000E+00
 -1       800-3.19195E+00 1.04169E+01 0.00000E+00
 -1       801-5.11148E+00 1.05985E+01 0.00000E+00
 -1       802-7.27765E+00 1.07900E+01 0.00000E+00
 -1       803-9.70132E+00 1.09903E+01 0.00000E+00
 -1       804 1.65360E+00 6.30470E+00 0.00000E+00
 -1       805 9.62986E-01 6.41467E+00 0.00000E+00
 -1       806-3.75759E-02 6.51419E+00 0.00000E+00
 -1       807-1.34726E+00 6.63171E+00 0.00000E+00
 -1       808-2.96991E+00 6.78269E+00 0.00000E+00
 -1       809-4.90839E+00 6.96926E+00 0.00000E+00
 -1       810-7.16129E+00 7.19193E+00 0.00000E+00
 -1       811 1.55907E+00 3.74763E+00 0.00000E+00
 -1       812 1.27315E+00 3.77578E+00 0.00000E+00
 -1       813 6.99123E-01 3.77513E+00 0.00000E+00
 -1       814-1.70477E-01 3.79553E+00 0.00000E+00
 -1       815-1.35966E+00 3.87828E+00 0.00000E+00
 -1       816-2.91763E+00 4.04455E+00 0.00000E+00
 -1       817-4.87356E+00 4.28320E+00 0.00000E+00
 -1       818 1.04702E+00 2.09099E+00 0.00000E+00
 -1       819 1.02831E+00 2.04227E+00 0.00000E+00
 -1       820 7.97357E-01 1.93387E+00 0.00000E+00
 -1       821 3.45818E-01 1.82571E+00 0.00000E+00
 -1       822-3.50019E-01 1.78193E+00 0.00000E+00
 -1       823-1.34938E+00 1.87333E+00 0.00000E+00
 -1       824-2.82340E+00 2.14355E+00 0.00000E+00
 -1       825 4.52907E-01 9.79588E-01 0.00000E+00
 -1       826 5.12260E-01 9.29554E-01 0.00000E+00
 -1       827 4.68508E-01 8.02024E-01 0.00000E+00
 -1       828 3.14636E-01 6.41419E-01 0.00000E+00
 -1       829 4.12384E-02 4.97802E-01 0.00000E+00
 -1       830-3.81346E-01 4.36718E-01 0.00000E+00
 -1       831-1.03059E+00 5.87782E-01 0.00000E+00
 -1       832 4.52907E-01 9.79588E-01 0.00000E+00
 -1       833 5.12260E-01 9.29554E-01 0.00000E+00
 -1       834 4.68508E-01 8.02024E-01 0.00000E+00
 -1       835 3.14636E-01 6.41419E-01 0.00000E+00
 -1       836 4.12384E-02 4.97802E-01 0.00000E+00
 -1       837-3.81346E-01 4.36718E-01 0.00000E+00
 -1       838-1.03059E+00 5.87782E-01 0.00000E+00
 -1       839 1.04702E+00 2.09099E+00 0.00000E+00
 -1       840 1.02831E+00 2.04227E+00 0.00000E+00
 -1       841 7.97357E-01 1.93387E+00 0.00000E+00
 -1       842 3.45818E-01 1.82571E+00 0.00000E+00
 -1       843-3.50019E-01 1.78193E+00 0.00000E+00
 -1       844-1.34938E+00 1.87333E+00 0.00000E+00
 -1       845-2.82340E+00 2.14355E+00 0.00000E+00
 -1       846 1.55907E+00 3.74763E+00 0.00000E+00
 -1       847 1.27315E+00 3.77578E+00 0.00000E+00
 -1       848 6.99123E-01 3.77513E+00 0.00000E+00
 -1       849-1.70477E-01 3.79553E+00 0.00000E+00
 -1       850-1.35966E+00 3.87828E+00 0.00000E+00
 -1       851-2.91763E+00 4.04455E+00 0.00000E+00
 -1       852-4.87356E+00 4.28320E+00 0.00000E+00
 -1       853 1.65360E+00 6.30470E+00 0.00000E+00
 -1       854 9.62986E-01 6.41467E+00 0.00000E+00
 -1       855-3.75759E-02 6.51419E+00 0.00000E+00
 -1       856-1.34726E+00 6.63171E+00 0.00000E+00
 -1       857-2.96991E+00 6.78269E+00 0.00000E+00
 -1       858-4.90839E+00 6.96926E+00 0.00000E+00
 -1       859-7.16129E+00 7.19193E+00 0.00000E+00
 -1       860 1.03277E+00 9.94262E+00 0.00000E+00
 -1       861-1.03876E-01 1.00948E+01 0.00000E+00
 -1       862-1.51884E+00 1.02490E+01 0.00000E+00
 -1       863-3.19195E+00 1.04169E+01 0.00000E+00
 -1       864-5.11148E+00 1.05985E+01 0.00000E+00
 -1       865-7.27765E+00 1.07900E+01 0.00000E+00
 -1       866-9.70132E+00 1.09903E+01 0.00000E+00
 -1       867-5.33043E-01 1.47112E+01 0.00000E+00
 -1       868-2.06828E+00 1.48758E+01 0.00000E+00
 -1       869-3.78831E+00 1.50568E+01 0.00000E+00
 -1       870-5.67453E+00 1.52463E+01 0.00000E+00
 -1       871-7.73201E+00 1.54325E+01 0.00000E+00
 -1       872-9.98240E+00 1.56063E+01 0.00000E+00
 -1       873-1.24565E+01 1.57665E+01 0.00000E+00
 -1       874-3.25490E+00 2.06001E+01 0.00000E+00
 -1       875-4.99815E+00 2.07710E+01 0.00000E+00
 -1       876-6.80954E+00 2.09602E+01 0.00000E+00
 -1       877-8.71173E+00 2.11497E+01 0.00000E+00
 -1       878-1.07392E+01 2.13238E+01 0.00000E+00
 -1       879-1.29330E+01 2.14706E+01 0.00000E+00
 -1       880-1.53369E+01 2.15836E+01 0.00000E+00
 -3
    1PSTEP                         2           1           1          
  100CL  101 1.000000000         162                     0    1           1
 -4  STRESS      6    1
 -5  SXX         1    4    1    1
 -5  SYY         1    4    2    2
 -5  SZZ         1    4    3    3
 -5  SXY         1    4    1    2
 -5  SYZ         1    4    2    3
 -5  SZX         1    4    3    1
 -1       719 1.40236E+01 1.17239E+01 8.49668E+00 6.52161E+00-2.04237E-14-5.52182E-14
 -1       720 1.40236E+01 1.17239E+01 8.49668E+00 6.52161E+00-2.04237E-14-5.52182E-14
 -1       721 5.28242E+00 2.58809E+00 2.59727E+00 3.99822E+00-1.72822E-16-4.45909E-18
 -1       722 5.28242E+00 2.58809E+00 2.59727E+00 3.99822E+00 1.22263E-16-4.45909E-18
 -1       723-2.67655E+00 1.64585E+00-3.40129E-01-3.28208E-01-3.09557E-13 2.51876E-13
 -1       724-2.67655E+00 1.64585E+00-3.40129E-01-3.28208E-01-3.19000E-13 2.51876E-13
 -1       725-4.35358E+01-2.15546E+01-2.14798E+01 5.07247E+00-2.12695E-17-9.67072E-18
 -1       726-4.35358E+01-2.15546E+01-2.14798E+01 5.07247E+00-2.12695E-17-9.67072E-18
 -1       727 1.36425E+01 1.10957E+01 8.16363E+00 8.51502E+00 9.12663E-16-3.35875E-14
 -1       728 1.54605E+01 1.18975E+01 9.02813E+00 1.03520E+01-1.65262E-13-6.45745E-14
 -1       729 1.56702E+01 1.17655E+01 9.05376E+00 1.05769E+01 4.80880E-14 4.38465E-14
 -1       730 1.41567E+01 1.02493E+01 8.05400E+00 9.90204E+00 7.86578E-16 2.35972E-15
 -1       731 1.11877E+01 7.63358E+00 6.21102E+00 8.45303E+00 4.36396E-15 5.35760E-15
 -1       732 7.74509E+00 4.92155E+00 4.17999E+00 6.67067E+00-9.11725E-15-2.97860E-15
 -1       733 5.36728E+00 3.66855E+00 2.98182E+00 4.89320E+00-4.84913E-15-3.02931E-15
 -1       734 1.36425E+01 1.10957E+01 8.16363E+00 8.51502E+00 9.12663E-16-3.34294E-14
 -1       735 1.54605E+01 1.18975E+01 9.02813E+00 1.03520E+01-1.66945E-13-6.54809E-14
 -1       736 1.56702E+01 1.17655E+01 9.05376E+00 1.05769E+01 4.58515E-14 4.50268E-14
 -1       737 1.41567E+01 1.02493E+01 8.05400E+00 9.90204E+00 1.02944E-15 1.74837E-15
 -1       738 1.11877E+01 7.63358E+00 6.21102E+00 8.45303E+00 5.70319E-15 6.70176E-15
 -1       739 7.74509E+00 4.92155E+00 4.17999E+00 6.67067E+00-9.98982E-15-3.29487E-15
 -1       740 5.36728E+00 3.66855E+00 2.98182E+00 4.89320E+00-4.88866E-15-3.02931E-15
 -1       741 5.29068E-01 5.15353E+00 1.87526E+00 7.29281E-01-3.73131E-13 1.16327E-13
 -1       742 2.33632E+00 9.03737E+00 3.75332E+00 2.34102E+00-4.25994E-13-2.30925E-16
 -1       743 3.41423E+00 1.10981E+01 4.78907E+00 3.53210E+00-1.88658E-13-7.43037E-14
 -1       744 4.15462E+00 1.19438E+01 5.31249E+00 4.45974E+00-2.29818E-13-6.79768E-15
 -1       745 4.92466E+00 1.19701E+01 5.57527E+00 5.19392E+00-5.14565E-14 7.56574E-14
 -1       746 6.21637E+00 1.14488E+01 5.82952E+00 5.76936E+00 3.16605E-14-1.15808E-13
 -1       747 8.80442E+00 1.05442E+01 6.38504E+00 6.24827E+00 4.95986E-15 4.19854E-15
 -1       748 5.29068E-01 5.15353E+00 1.87526E+00 7.29281E-01-3.72205E-13 1.16327E-13
 -1       749 2.33632E+00 9.03737E+00 3.75332E+00 2.34102E+00-4.24390E-13-2.30925E-16
 -1       750 3.41423E+00 1.10981E+01 4.78907E+00 3.53210E+00-1.89923E-13-7.41342E-14
 -1       751 4.15462E+00 1.19438E+01 5.31249E+00 4.45974E+00-2.29818E-13-7.43021E-15
 -1       752 4.92466E+00 1.19701E+01 5.57527E+00 5.19392E+00-5.14565E-14 7.56574E-14
 -1       753 6.21637E+00 1.14488E+01 5.82952E+00 5.76936E+00 3.63818E-14-1.14627E-13
 -1       754 8.80442E+00 1.05442E+01 6.38504E+00 6.24827E+00 3.69479E-15 3.88228E-15
 -1       755-2.65205E+01-4.68416E+00-1.02975E+01-3.04901E+00 6.35486E-16 6.27678E-16
 -1       756-2.16093E+01-4.61450E+00-8.65385E+00-4.56704E+00 1.74729E-15-7.75841E-16
 -1       757-1.91184E+01-3.56627E+00-7.48593E+00-4.38981E+00 1.23199E-14-2.88699E-14
 -1       758-1.77603E+01-3.21731E+00-6.92263E+00-4.05078E+00 6.01590E-14 7.79513E-15
 -1       759-1.57315E+01-2.63968E+00-6.06249E+00-3.39437E+00-5.57816E-14 9.19428E-15
 -1       760-1.28805E+01-2.04329E+00-4.92484E+00-2.39587E+00 1.52361E-13-1.31822E-14
 -1       761-7.80159E+00-1.17523E+00-2.96235E+00-7.07145E-01 1.20206E-13 1.55301E-14
 -1       762-2.65205E+01-4.68416E+00-1.02975E+01-3.04901E+00 5.56419E-16 6.27678E-16
 -1       763-2.16093E+01-4.61450E+00-8.65385E+00-4.56704E+00-3.18309E-16-7.75841E-16
 -1       764-1.91184E+01-3.56627E+00-7.48593E+00-4.38981E+00 1.26362E-14-2.88699E-14
 -1       765-1.77603E+01-3.21731E+00-6.92263E+00-4.05078E+00 5.66180E-14 7.79513E-15
 -1       766-1.57315E+01-2.63968E+00-6.06249E+00-3.39437E+00-4.76040E-14-2.48456E-16
 -1       767-1.28805E+01-2.04329E+00-4.92484E+00-2.39587E+00 1.50508E-13-1.06520E-14
 -1       768-7.80159E+00-1.17523E+00-2.96235E+00-7.07145E-01 1.21471E-13 1.55301E-14
 -1       769 7.85134E+00 3.86538E+00 3.86652E+00 4.28957E+00 8.52060E-17-3.30291E-17
 -1       770 8.86803E+00 4.38610E+00 4.37386E+00 4.07158E+00-2.78716E-17-3.48497E-17
 -1       771 8.09881E+00 4.01860E+00 3.99874E+00 3.51739E+00 4.96447E-18 1.84104E-17
 -1       772 5.42264E+00 2.70215E+00 2.68118E+00 2.82130E+00 3.37929E-17 1.70690E-17
 -1       773 6.74344E-01 3.53197E-01 3.39088E-01 2.20334E+00-4.28057E-17 1.97639E-17
 -1       774-6.66737E+00-3.29319E+00-3.28698E+00 1.95377E+00-2.20437E-17 3.03907E-17
 -1       775-1.79776E+01-8.92599E+00-8.87817E+00 2.66083E+00 8.54252E-17-1.45136E-16