
 displacements (vx,vy,vz) for set VERTEX and time  0.1000000E+01

       724 -2.063408E+01  2.878246E+01  0.000000E+00
