    1C
    1UHash: PXJD0WWr, Date: 03/11/2021, Unit system: MM_TON_S_C         
    1UUSER                                                              
    1UDATE              13.march.2021                                   
    1UTIME              18:37:32                                        
    1UHOST                                                              
    1UPGM               CalculiX                                        
    1UVERSION           Version 2.17                             
    1UCOMPILETIME       Thu Jul 23 21:43:50 CEST 2020                    
    1UDIR                                                               
    1UDBN                                                               
    1UMAT    1RUBBER                                                    
    2C                          8053                                     1
 -1     20407 4.80000E+01 4.40000E+01 0.00000E+00
 -1     20408 4.80000E+01 4.40000E+01 5.00000E+00
 -1     20409 0.00000E+00 0.00000E+00 0.00000E+00
 -1     20410 0.00000E+00 0.00000E+00 5.00000E+00
 -1     20411 4.80000E+01 6.00000E+01 0.00000E+00
 -1     20412 4.80000E+01 6.00000E+01 5.00000E+00
 -1     20413 0.00000E+00 4.40000E+01 0.00000E+00
 -1     20414 0.00000E+00 4.40000E+01 5.00000E+00
 -1     20415 4.65455E+01 4.26667E+01 0.00000E+00
 -1     20416 4.50909E+01 4.13333E+01 0.00000E+00
 -1     20417 4.36364E+01 4.00000E+01 0.00000E+00
 -1     20418 4.21818E+01 3.86667E+01 0.00000E+00
 -1     20419 4.07273E+01 3.73333E+01 0.00000E+00
 -1     20420 3.92727E+01 3.60000E+01 0.00000E+00
 -1     20421 3.78182E+01 3.46667E+01 0.00000E+00
 -1     20422 3.63636E+01 3.33333E+01 0.00000E+00
 -1     20423 3.49091E+01 3.20000E+01 0.00000E+00
 -1     20424 3.34545E+01 3.06667E+01 0.00000E+00
 -1     20425 3.20000E+01 2.93333E+01 0.00000E+00
 -1     20426 3.05455E+01 2.80000E+01 0.00000E+00
 -1     20427 2.90909E+01 2.66667E+01 0.00000E+00
 -1     20428 2.76364E+01 2.53333E+01 0.00000E+00
 -1     20429 2.61818E+01 2.40000E+01 0.00000E+00
 -1     20430 2.47273E+01 2.26667E+01 0.00000E+00
 -1     20431 2.32727E+01 2.13333E+01 0.00000E+00
 -1     20432 2.18182E+01 2.00000E+01 0.00000E+00
 -1     20433 2.03636E+01 1.86667E+01 0.00000E+00
 -1     20434 1.89091E+01 1.73333E+01 0.00000E+00
 -1     20435 1.74545E+01 1.60000E+01 0.00000E+00
 -1     20436 1.60000E+01 1.46667E+01 0.00000E+00
 -1     20437 1.45455E+01 1.33333E+01 0.00000E+00
 -1     20438 1.30909E+01 1.20000E+01 0.00000E+00
 -1     20439 1.16364E+01 1.06667E+01 0.00000E+00
 -1     20440 1.01818E+01 9.33333E+00 0.00000E+00
 -1     20441 8.72727E+00 8.00000E+00 0.00000E+00
 -1     20442 7.27273E+00 6.66667E+00 0.00000E+00
 -1     20443 5.81818E+00 5.33333E+00 0.00000E+00
 -1     20444 4.36364E+00 4.00000E+00 0.00000E+00
 -1     20445 2.90909E+00 2.66667E+00 0.00000E+00
 -1     20446 1.45455E+00 1.33333E+00 0.00000E+00
 -1     20447 4.65455E+01 4.26667E+01 5.00000E+00
 -1     20448 4.50909E+01 4.13333E+01 5.00000E+00
 -1     20449 4.36364E+01 4.00000E+01 5.00000E+00
 -1     20450 4.21818E+01 3.86667E+01 5.00000E+00
 -1     20451 4.07273E+01 3.73333E+01 5.00000E+00
 -1     20452 3.92727E+01 3.60000E+01 5.00000E+00
 -1     20453 3.78182E+01 3.46667E+01 5.00000E+00
 -1     20454 3.63636E+01 3.33333E+01 5.00000E+00
 -1     20455 3.49091E+01 3.20000E+01 5.00000E+00
 -1     20456 3.34545E+01 3.06667E+01 5.00000E+00
 -1     20457 3.20000E+01 2.93333E+01 5.00000E+00
 -1     20458 3.05455E+01 2.80000E+01 5.00000E+00
 -1     20459 2.90909E+01 2.66667E+01 5.00000E+00
 -1     20460 2.76364E+01 2.53333E+01 5.00000E+00
 -1     20461 2.61818E+01 2.40000E+01 5.00000E+00
 -1     20462 2.47273E+01 2.26667E+01 5.00000E+00
 -1     20463 2.32727E+01 2.13333E+01 5.00000E+00
 -1     20464 2.18182E+01 2.00000E+01 5.00000E+00
 -1     20465 2.03636E+01 1.86667E+01 5.00000E+00
 -1     20466 1.89091E+01 1.73333E+01 5.00000E+00
 -1     20467 1.74545E+01 1.60000E+01 5.00000E+00
 -1     20468 1.60000E+01 1.46667E+01 5.00000E+00
 -1     20469 1.45455E+01 1.33333E+01 5.00000E+00
 -1     20470 1.30909E+01 1.20000E+01 5.00000E+00
 -1     20471 1.16364E+01 1.06667E+01 5.00000E+00
 -1     20472 1.01818E+01 9.33333E+00 5.00000E+00
 -1     20473 8.72727E+00 8.00000E+00 5.00000E+00
 -1     20474 7.27273E+00 6.66667E+00 5.00000E+00
 -1     20475 5.81818E+00 5.33333E+00 5.00000E+00
 -1     20476 4.36364E+00 4.00000E+00 5.00000E+00
 -1     20477 2.90909E+00 2.66667E+00 5.00000E+00
 -1     20478 1.45455E+00 1.33333E+00 5.00000E+00
 -1     20479 4.80000E+01 5.80000E+01 0.00000E+00
 -1     20480 4.80000E+01 5.60000E+01 0.00000E+00
 -1     20481 4.80000E+01 5.40000E+01 0.00000E+00
 -1     20482 4.80000E+01 5.20000E+01 0.00000E+00
 -1     20483 4.80000E+01 5.00000E+01 0.00000E+00
 -1     20484 4.80000E+01 4.80000E+01 0.00000E+00
 -1     20485 4.80000E+01 4.60000E+01 0.00000E+00
 -1     20486 4.80000E+01 5.80000E+01 5.00000E+00
 -1     20487 4.80000E+01 5.60000E+01 5.00000E+00
 -1     20488 4.80000E+01 5.40000E+01 5.00000E+00
 -1     20489 4.80000E+01 5.20000E+01 5.00000E+00
 -1     20490 4.80000E+01 5.00000E+01 5.00000E+00
 -1     20491 4.80000E+01 4.80000E+01 5.00000E+00
 -1     20492 4.80000E+01 4.60000E+01 5.00000E+00
 -1     20493 1.84615E+00 4.46154E+01 0.00000E+00
 -1     20494 3.69231E+00 4.52308E+01 0.00000E+00
 -1     20495 5.53846E+00 4.58462E+01 0.00000E+00
 -1     20496 7.38462E+00 4.64615E+01 0.00000E+00
 -1     20497 9.23077E+00 4.70769E+01 0.00000E+00
 -1     20498 1.10769E+01 4.76923E+01 0.00000E+00
 -1     20499 1.29231E+01 4.83077E+01 0.00000E+00
 -1     20500 1.47692E+01 4.89231E+01 0.00000E+00
 -1     20501 1.66154E+01 4.95385E+01 0.00000E+00
 -1     20502 1.84615E+01 5.01538E+01 0.00000E+00
 -1     20503 2.03077E+01 5.07692E+01 0.00000E+00
 -1     20504 2.21538E+01 5.13846E+01 0.00000E+00
 -1     20505 2.40000E+01 5.20000E+01 0.00000E+00
 -1     20506 2.58462E+01 5.26154E+01 0.00000E+00
 -1     20507 2.76923E+01 5.32308E+01 0.00000E+00
 -1     20508 2.95385E+01 5.38462E+01 0.00000E+00
 -1     20509 3.13846E+01 5.44615E+01 0.00000E+00
 -1     20510 3.32308E+01 5.50769E+01 0.00000E+00
 -1     20511 3.50769E+01 5.56923E+01 0.00000E+00
 -1     20512 3.69231E+01 5.63077E+01 0.00000E+00
 -1     20513 3.87692E+01 5.69231E+01 0.00000E+00
 -1     20514 4.06154E+01 5.75385E+01 0.00000E+00
 -1     20515 4.24615E+01 5.81538E+01 0.00000E+00
 -1     20516 4.43077E+01 5.87692E+01 0.00000E+00
 -1     20517 4.61538E+01 5.93846E+01 0.00000E+00
 -1     20518 1.84615E+00 4.46154E+01 5.00000E+00
 -1     20519 3.69231E+00 4.52308E+01 5.00000E+00
 -1     20520 5.53846E+00 4.58462E+01 5.00000E+00
 -1     20521 7.38462E+00 4.64615E+01 5.00000E+00
 -1     20522 9.23077E+00 4.70769E+01 5.00000E+00
 -1     20523 1.10769E+01 4.76923E+01 5.00000E+00
 -1     20524 1.29231E+01 4.83077E+01 5.00000E+00
 -1     20525 1.47692E+01 4.89231E+01 5.00000E+00
 -1     20526 1.66154E+01 4.95385E+01 5.00000E+00
 -1     20527 1.84615E+01 5.01538E+01 5.00000E+00
 -1     20528 2.03077E+01 5.07692E+01 5.00000E+00
 -1     20529 2.21538E+01 5.13846E+01 5.00000E+00
 -1     20530 2.40000E+01 5.20000E+01 5.00000E+00
 -1     20531 2.58462E+01 5.26154E+01 5.00000E+00
 -1     20532 2.76923E+01 5.32308E+01 5.00000E+00
 -1     20533 2.95385E+01 5.38462E+01 5.00000E+00
 -1     20534 3.13846E+01 5.44615E+01 5.00000E+00
 -1     20535 3.32308E+01 5.50769E+01 5.00000E+00
 -1     20536 3.50769E+01 5.56923E+01 5.00000E+00
 -1     20537 3.69231E+01 5.63077E+01 5.00000E+00
 -1     20538 3.87692E+01 5.69231E+01 5.00000E+00
 -1     20539 4.06154E+01 5.75385E+01 5.00000E+00
 -1     20540 4.24615E+01 5.81538E+01 5.00000E+00
 -1     20541 4.43077E+01 5.87692E+01 5.00000E+00
 -1     20542 4.61538E+01 5.93846E+01 5.00000E+00
 -1     20543 0.00000E+00 2.00000E+00 0.00000E+00
 -1     20544 0.00000E+00 4.00000E+00 0.00000E+00
 -1     20545 0.00000E+00 6.00000E+00 0.00000E+00
 -1     20546 0.00000E+00 8.00000E+00 0.00000E+00
 -1     20547 0.00000E+00 1.00000E+01 0.00000E+00
 -1     20548 0.00000E+00 1.20000E+01 0.00000E+00
 -1     20549 0.00000E+00 1.40000E+01 0.00000E+00
 -1     20550 0.00000E+00 1.60000E+01 0.00000E+00
 -1     20551 0.00000E+00 1.80000E+01 0.00000E+00
 -1     20552 0.00000E+00 2.00000E+01 0.00000E+00
 -1     20553 0.00000E+00 2.20000E+01 0.00000E+00
 -1     20554 0.00000E+00 2.40000E+01 0.00000E+00
 -1     20555 0.00000E+00 2.60000E+01 0.00000E+00
 -1     20556 0.00000E+00 2.80000E+01 0.00000E+00
 -1     20557 0.00000E+00 3.00000E+01 0.00000E+00
 -1     20558 0.00000E+00 3.20000E+01 0.00000E+00
 -1     20559 0.00000E+00 3.40000E+01 0.00000E+00
 -1     20560 0.00000E+00 3.60000E+01 0.00000E+00
 -1     20561 0.00000E+00 3.80000E+01 0.00000E+00
 -1     20562 0.00000E+00 4.00000E+01 0.00000E+00
 -1     20563 0.00000E+00 4.20000E+01 0.00000E+00
 -1     20564 0.00000E+00 2.00000E+00 5.00000E+00
 -1     20565 0.00000E+00 4.00000E+00 5.00000E+00
 -1     20566 0.00000E+00 6.00000E+00 5.00000E+00
 -1     20567 0.00000E+00 8.00000E+00 5.00000E+00
 -1     20568 0.00000E+00 1.00000E+01 5.00000E+00
 -1     20569 0.00000E+00 1.20000E+01 5.00000E+00
 -1     20570 0.00000E+00 1.40000E+01 5.00000E+00
 -1     20571 0.00000E+00 1.60000E+01 5.00000E+00
 -1     20572 0.00000E+00 1.80000E+01 5.00000E+00
 -1     20573 0.00000E+00 2.00000E+01 5.00000E+00
 -1     20574 0.00000E+00 2.20000E+01 5.00000E+00
 -1     20575 0.00000E+00 2.40000E+01 5.00000E+00
 -1     20576 0.00000E+00 2.60000E+01 5.00000E+00
 -1     20577 0.00000E+00 2.80000E+01 5.00000E+00
 -1     20578 0.00000E+00 3.00000E+01 5.00000E+00
 -1     20579 0.00000E+00 3.20000E+01 5.00000E+00
 -1     20580 0.00000E+00 3.40000E+01 5.00000E+00
 -1     20581 0.00000E+00 3.60000E+01 5.00000E+00
 -1     20582 0.00000E+00 3.80000E+01 5.00000E+00
 -1     20583 0.00000E+00 4.00000E+01 5.00000E+00
 -1     20584 0.00000E+00 4.20000E+01 5.00000E+00
 -1     20585 4.63320E+01 4.47368E+01 0.00000E+00
 -1     20586 4.32728E+01 4.20495E+01 0.00000E+00
 -1     20587 4.03161E+01 3.93251E+01 0.00000E+00
 -1     20588 3.73859E+01 3.66183E+01 0.00000E+00
 -1     20589 3.44645E+01 3.39511E+01 0.00000E+00
 -1     20590 3.15624E+01 3.12777E+01 0.00000E+00
 -1     20591 2.86659E+01 2.85967E+01 0.00000E+00
 -1     20592 2.57644E+01 2.59213E+01 0.00000E+00
 -1     20593 2.28569E+01 2.32545E+01 0.00000E+00
 -1     20594 1.99454E+01 2.05948E+01 0.00000E+00
 -1     20595 1.70362E+01 1.79395E+01 0.00000E+00
 -1     20596 1.41395E+01 1.52780E+01 0.00000E+00
 -1     20597 1.12709E+01 1.26036E+01 0.00000E+00
 -1     20598 8.40519E+00 9.92046E+00 0.00000E+00
 -1     20599 5.40435E+00 7.33386E+00 0.00000E+00
 -1     20600 2.06979E+00 4.73219E+00 0.00000E+00
 -1     20601 1.73229E+00 9.01806E+00 0.00000E+00
 -1     20602 1.61593E+00 1.30314E+01 0.00000E+00
 -1     20603 1.65277E+00 1.70098E+01 0.00000E+00
 -1     20604 1.68373E+00 2.09923E+01 0.00000E+00
 -1     20605 1.70772E+00 2.49863E+01 0.00000E+00
 -1     20606 1.69938E+00 2.89780E+01 0.00000E+00
 -1     20607 1.66539E+00 3.29456E+01 0.00000E+00
 -1     20608 1.61117E+00 3.68783E+01 0.00000E+00
 -1     20609 1.63442E+00 4.07944E+01 0.00000E+00
 -1     20610 1.70372E+00 4.27287E+01 0.00000E+00
 -1     20611 5.26445E+00 4.40306E+01 0.00000E+00
 -1     20612 8.89510E+00 4.52155E+01 0.00000E+00
 -1     20613 1.25514E+01 4.64069E+01 0.00000E+00
 -1     20614 1.62310E+01 4.76205E+01 0.00000E+00
 -1     20615 1.99268E+01 4.88420E+01 0.00000E+00
 -1     20616 2.36229E+01 5.00642E+01 0.00000E+00
 -1     20617 2.73121E+01 5.12946E+01 0.00000E+00
 -1     20618 3.09884E+01 5.25384E+01 0.00000E+00
 -1     20619 3.46653E+01 5.37936E+01 0.00000E+00
 -1     20620 3.84272E+01 5.49161E+01 0.00000E+00
 -1     20621 4.22739E+01 5.60156E+01 0.00000E+00
 -1     20622 4.61044E+01 5.73290E+01 0.00000E+00
 -1     20623 4.59409E+01 5.31180E+01 0.00000E+00
 -1     20624 4.61459E+01 4.88635E+01 0.00000E+00
 -1     20625 4.47830E+01 4.34036E+01 0.00000E+00
 -1     20626 4.17873E+01 4.06885E+01 0.00000E+00
 -1     20627 3.88511E+01 3.79665E+01 0.00000E+00
 -1     20628 3.59226E+01 3.52830E+01 0.00000E+00
 -1     20629 3.30118E+01 3.26161E+01 0.00000E+00
 -1     20630 3.01145E+01 2.99372E+01 0.00000E+00
 -1     20631 2.72161E+01 2.72578E+01 0.00000E+00
 -1     20632 2.43114E+01 2.45871E+01 0.00000E+00
 -1     20633 2.14021E+01 2.19237E+01 0.00000E+00
 -1     20634 1.84892E+01 1.92675E+01 0.00000E+00
 -1     20635 1.55875E+01 1.66109E+01 0.00000E+00
 -1     20636 1.26978E+01 1.39445E+01 0.00000E+00
 -1     20637 9.84988E+00 1.12563E+01 0.00000E+00
 -1     20638 6.92456E+00 8.61560E+00 0.00000E+00
 -1     20639 3.81852E+00 6.05412E+00 0.00000E+00
 -1     20640 1.30969E+00 2.99715E+00 0.00000E+00
 -1     20641 1.85660E+00 6.95530E+00 0.00000E+00
 -1     20642 1.65249E+00 1.10311E+01 0.00000E+00
 -1     20643 1.62402E+00 1.50259E+01 0.00000E+00
 -1     20644 1.67207E+00 1.89958E+01 0.00000E+00
 -1     20645 1.69710E+00 2.29897E+01 0.00000E+00
 -1     20646 1.70797E+00 2.69834E+01 0.00000E+00
 -1     20647 1.68647E+00 3.09687E+01 0.00000E+00
 -1     20648 1.63712E+00 3.49140E+01 0.00000E+00
 -1     20649 1.60614E+00 3.88414E+01 0.00000E+00
 -1     20650 1.07200E+01 4.58042E+01 0.00000E+00
 -1     20651 3.47033E+00 4.33957E+01 0.00000E+00
 -1     20652 7.07612E+00 4.46330E+01 0.00000E+00
 -1     20653 1.43861E+01 4.70095E+01 0.00000E+00
 -1     20654 1.80798E+01 4.82287E+01 0.00000E+00
 -1     20655 2.17748E+01 4.94534E+01 0.00000E+00
 -1     20656 2.54699E+01 5.06820E+01 0.00000E+00
 -1     20657 2.91547E+01 5.19115E+01 0.00000E+00
 -1     20658 3.28200E+01 5.31717E+01 0.00000E+00
 -1     20659 3.65380E+01 5.43774E+01 0.00000E+00
 -1     20660 4.03442E+01 5.54523E+01 0.00000E+00
 -1     20661 4.41959E+01 5.66529E+01 0.00000E+00
 -1     20662 4.60304E+01 5.52438E+01 0.00000E+00
 -1     20663 4.60022E+01 5.09835E+01 0.00000E+00
 -1     20664 4.62296E+01 4.67915E+01 0.00000E+00
 -1     20665 3.84377E+01 3.99428E+01 0.00000E+00
 -1     20666 3.54895E+01 3.72302E+01 0.00000E+00
 -1     20667 4.45590E+01 4.54866E+01 0.00000E+00
 -1     20668 3.25631E+01 3.45714E+01 0.00000E+00
 -1     20669 3.69645E+01 3.85679E+01 0.00000E+00
 -1     20670 2.96737E+01 3.18814E+01 0.00000E+00
 -1     20671 2.67906E+01 2.91844E+01 0.00000E+00
 -1     20672 2.38948E+01 2.65071E+01 0.00000E+00
 -1     20673 2.09886E+01 2.38445E+01 0.00000E+00
 -1     20674 1.80721E+01 2.11979E+01 0.00000E+00
 -1     20675 1.51670E+01 1.85560E+01 0.00000E+00
 -1     20676 1.22823E+01 1.58893E+01 0.00000E+00
 -1     20677 9.47385E+00 1.31923E+01 0.00000E+00
 -1     20678 6.64287E+00 1.05268E+01 0.00000E+00
 -1     20679 3.35962E+00 1.01151E+01 0.00000E+00
 -1     20680 3.21418E+00 1.40619E+01 0.00000E+00
 -1     20681 3.54133E+00 8.11098E+00 0.00000E+00
 -1     20682 3.41214E+00 2.39703E+01 0.00000E+00
 -1     20683 3.34067E+00 1.79849E+01 0.00000E+00
 -1     20684 5.03332E+00 4.22096E+01 0.00000E+00
 -1     20685 3.37922E+00 2.19768E+01 0.00000E+00
 -1     20686 3.28504E+00 1.60266E+01 0.00000E+00
 -1     20687 3.41126E+00 2.79667E+01 0.00000E+00
 -1     20688 3.36373E+00 3.19363E+01 0.00000E+00
 -1     20689 3.25321E+00 3.58071E+01 0.00000E+00
 -1     20690 3.22131E+00 3.96427E+01 0.00000E+00
 -1     20691 8.57511E+00 4.33725E+01 0.00000E+00
 -1     20692 3.31213E+00 4.15345E+01 0.00000E+00
 -1     20693 1.95453E+01 4.69118E+01 0.00000E+00
 -1     20694 1.40070E+01 4.50951E+01 0.00000E+00
 -1     20695 2.32439E+01 4.81272E+01 0.00000E+00
 -1     20696 1.21813E+01 4.44983E+01 0.00000E+00
 -1     20697 2.13951E+01 4.75187E+01 0.00000E+00
 -1     20698 2.69416E+01 4.93513E+01 0.00000E+00
 -1     20699 3.06223E+01 5.05882E+01 0.00000E+00
 -1     20700 3.42353E+01 5.19079E+01 0.00000E+00
 -1     20701 3.79858E+01 5.29825E+01 0.00000E+00
 -1     20702 4.19631E+01 5.38749E+01 0.00000E+00
 -1     20703 4.40209E+01 5.44729E+01 0.00000E+00
 -1     20704 4.37383E+01 5.20815E+01 0.00000E+00
 -1     20705 3.99164E+01 4.13399E+01 0.00000E+00
 -1     20706 4.44005E+01 4.75832E+01 0.00000E+00
 -1     20707 3.35182E+00 1.99760E+01 0.00000E+00
 -1     20708 3.40200E+01 3.59051E+01 0.00000E+00
 -1     20709 3.11156E+01 3.32289E+01 0.00000E+00
 -1     20710 1.76933E+01 4.63069E+01 0.00000E+00
 -1     20711 4.14193E+01 4.27359E+01 0.00000E+00
 -1     20712 1.95315E+01 2.25187E+01 0.00000E+00
 -1     20713 2.53437E+01 2.78428E+01 0.00000E+00
 -1     20714 2.82337E+01 3.05316E+01 0.00000E+00
 -1     20715 2.24432E+01 2.51748E+01 0.00000E+00
 -1     20716 1.66138E+01 1.98775E+01 0.00000E+00
 -1     20717 1.37250E+01 1.72249E+01 0.00000E+00
 -1     20718 1.08507E+01 1.45528E+01 0.00000E+00
 -1     20719 8.09354E+00 1.18256E+01 0.00000E+00
 -1     20720 3.42377E+00 2.59668E+01 0.00000E+00
 -1     20721 5.12524E+00 9.30607E+00 0.00000E+00
 -1     20722 3.23551E+00 1.20862E+01 0.00000E+00
 -1     20723 3.39062E+00 2.99599E+01 0.00000E+00
 -1     20724 6.79318E+00 4.28185E+01 0.00000E+00
 -1     20725 3.31775E+00 3.38826E+01 0.00000E+00
 -1     20726 3.20647E+00 3.77284E+01 0.00000E+00
 -1     20727 1.03709E+01 4.39224E+01 0.00000E+00
 -1     20728 1.58460E+01 4.57004E+01 0.00000E+00
 -1     20729 2.87882E+01 4.99628E+01 0.00000E+00
 -1     20730 2.50928E+01 4.87396E+01 0.00000E+00
 -1     20731 3.24343E+01 5.12408E+01 0.00000E+00
 -1     20732 3.60826E+01 5.25074E+01 0.00000E+00
 -1     20733 3.99261E+01 5.34190E+01 0.00000E+00
 -1     20734 4.42652E+01 4.97096E+01 0.00000E+00
 -1     20735 4.29637E+01 4.41235E+01 0.00000E+00
 -1     20736 2.77889E+01 3.24746E+01 0.00000E+00
 -1     20737 1.18741E+01 1.78422E+01 0.00000E+00
 -1     20738 2.34767E+01 2.84238E+01 0.00000E+00
 -1     20739 1.47386E+01 2.05050E+01 0.00000E+00
 -1     20740 1.76639E+01 2.31230E+01 0.00000E+00
 -1     20741 8.97197E+00 1.51598E+01 0.00000E+00
 -1     20742 2.05832E+01 2.57637E+01 0.00000E+00
 -1     20743 1.33038E+01 1.91827E+01 0.00000E+00
 -1     20744 1.04222E+01 1.65013E+01 0.00000E+00
 -1     20745 4.74524E+00 1.31180E+01 0.00000E+00
 -1     20746 5.15012E+00 2.49358E+01 0.00000E+00
 -1     20747 4.77152E+00 3.85412E+01 0.00000E+00
 -1     20748 1.61974E+01 2.18143E+01 0.00000E+00
 -1     20749 4.95207E+00 3.48107E+01 0.00000E+00
 -1     20750 4.90974E+00 1.12336E+01 0.00000E+00
 -1     20751 5.10172E+00 2.89594E+01 0.00000E+00
 -1     20752 4.83148E+00 3.66765E+01 0.00000E+00
 -1     20753 5.10255E+00 2.29461E+01 0.00000E+00
 -1     20754 3.21038E+01 4.92720E+01 0.00000E+00
 -1     20755 6.53348E+00 4.10378E+01 0.00000E+00
 -1     20756 2.65651E+01 4.74114E+01 0.00000E+00
 -1     20757 2.20307E+01 2.70932E+01 0.00000E+00
 -1     20758 4.84993E+00 4.03898E+01 0.00000E+00
 -1     20759 1.54525E+01 4.37807E+01 0.00000E+00
 -1     20760 1.91572E+01 4.49874E+01 0.00000E+00
 -1     20761 2.47150E+01 4.67972E+01 0.00000E+00
 -1     20762 2.28677E+01 4.61856E+01 0.00000E+00
 -1     20763 4.24811E+01 5.03069E+01 0.00000E+00
 -1     20764 5.13307E+00 2.69514E+01 0.00000E+00
 -1     20765 2.10149E+01 4.55843E+01 0.00000E+00
 -1     20766 3.02785E+01 4.86224E+01 0.00000E+00
 -1     20767 1.73006E+01 4.43872E+01 0.00000E+00
 -1     20768 3.80226E+01 4.19440E+01 0.00000E+00
 -1     20769 1.91290E+01 2.44393E+01 0.00000E+00
 -1     20770 4.27209E+01 4.62299E+01 0.00000E+00
 -1     20771 1.00274E+01 4.20503E+01 0.00000E+00
 -1     20772 2.49226E+01 2.97615E+01 0.00000E+00
 -1     20773 6.38904E+00 1.23675E+01 0.00000E+00
 -1     20774 3.95256E+01 4.33831E+01 0.00000E+00
 -1     20775 1.36201E+01 4.31759E+01 0.00000E+00
 -1     20776 4.10994E+01 4.48191E+01 0.00000E+00
 -1     20777 5.03369E+00 3.29060E+01 0.00000E+00
 -1     20778 1.18080E+01 4.25867E+01 0.00000E+00
 -1     20779 5.07287E+00 3.09503E+01 0.00000E+00
 -1     20780 2.92191E+01 3.38343E+01 0.00000E+00
 -1     20781 5.01000E+00 1.89447E+01 0.00000E+00
 -1     20782 3.06575E+01 3.51923E+01 0.00000E+00
 -1     20783 3.65564E+01 4.05191E+01 0.00000E+00
 -1     20784 4.25265E+01 4.83515E+01 0.00000E+00
 -1     20785 4.13324E+01 5.18203E+01 0.00000E+00
 -1     20786 2.63602E+01 3.11144E+01 0.00000E+00
 -1     20787 4.85136E+00 1.50528E+01 0.00000E+00
 -1     20788 8.26993E+00 4.15673E+01 0.00000E+00
 -1     20789 3.38753E+01 4.99780E+01 0.00000E+00
 -1     20790 3.21074E+01 3.65389E+01 0.00000E+00
 -1     20791 7.72891E+00 1.37343E+01 0.00000E+00
 -1     20792 3.35785E+01 3.78669E+01 0.00000E+00
 -1     20793 5.04043E+00 1.69532E+01 0.00000E+00
 -1     20794 2.84232E+01 4.80147E+01 0.00000E+00
 -1     20795 3.74342E+01 5.11760E+01 0.00000E+00
 -1     20796 3.55953E+01 5.07022E+01 0.00000E+00
 -1     20797 5.02167E+00 2.09502E+01 0.00000E+00
 -1     20798 3.93511E+01 5.13967E+01 0.00000E+00
 -1     20799 4.08406E+01 4.69780E+01 0.00000E+00
 -1     20800 6.88484E+00 1.57620E+01 0.00000E+00
 -1     20801 1.87401E+01 2.63553E+01 0.00000E+00
 -1     20802 6.30150E+00 3.93061E+01 0.00000E+00
 -1     20803 2.44985E+01 3.16735E+01 0.00000E+00
 -1     20804 6.90999E+00 2.38598E+01 0.00000E+00
 -1     20805 3.50721E+01 3.91671E+01 0.00000E+00
 -1     20806 8.54139E+00 1.71219E+01 0.00000E+00
 -1     20807 3.36376E+01 4.79887E+01 0.00000E+00
 -1     20808 2.61834E+01 4.54710E+01 0.00000E+00
 -1     20809 3.18054E+01 4.72698E+01 0.00000E+00
 -1     20810 2.43491E+01 4.48408E+01 0.00000E+00
 -1     20811 2.59131E+01 3.30538E+01 0.00000E+00
 -1     20812 1.14184E+01 4.06601E+01 0.00000E+00
 -1     20813 2.99255E+01 4.66560E+01 0.00000E+00
 -1     20814 9.66522E+00 4.01866E+01 0.00000E+00
 -1     20815 1.00490E+01 1.84541E+01 0.00000E+00
 -1     20816 3.75538E+01 4.39858E+01 0.00000E+00
 -1     20817 2.80422E+01 4.60805E+01 0.00000E+00
 -1     20818 1.50459E+01 4.18589E+01 0.00000E+00
 -1     20819 3.91967E+01 4.54477E+01 0.00000E+00
 -1     20820 6.70207E+00 3.38984E+01 0.00000E+00
 -1     20821 1.32172E+01 4.12442E+01 0.00000E+00
 -1     20822 6.13363E+00 1.40371E+01 0.00000E+00
 -1     20823 3.31616E+01 3.98391E+01 0.00000E+00
 -1     20824 6.81511E+00 2.79571E+01 0.00000E+00
 -1     20825 2.73203E+01 3.44268E+01 0.00000E+00
 -1     20826 1.68951E+01 4.24707E+01 0.00000E+00
 -1     20827 1.72770E+01 2.50411E+01 0.00000E+00
 -1     20828 3.68153E+01 4.96196E+01 0.00000E+00
 -1     20829 2.01807E+01 2.76822E+01 0.00000E+00
 -1     20830 1.43227E+01 2.24602E+01 0.00000E+00
 -1     20831 1.14605E+01 1.98187E+01 0.00000E+00
 -1     20832 6.59567E+00 1.99128E+01 0.00000E+00
 -1     20833 3.16460E+01 3.85375E+01 0.00000E+00
 -1     20834 2.30622E+01 3.03303E+01 0.00000E+00
 -1     20835 1.28602E+01 2.11610E+01 0.00000E+00
 -1     20836 2.24951E+01 4.42393E+01 0.00000E+00
 -1     20837 6.87191E+00 2.59127E+01 0.00000E+00
 -1     20838 6.77623E+00 2.99756E+01 0.00000E+00
 -1     20839 1.57994E+01 2.37442E+01 0.00000E+00
 -1     20840 3.46918E+01 4.10610E+01 0.00000E+00
 -1     20841 4.05717E+01 4.94178E+01 0.00000E+00
 -1     20842 6.31824E+00 3.75154E+01 0.00000E+00
 -1     20843 6.56112E+00 3.57532E+01 0.00000E+00
 -1     20844 7.96212E+00 3.98514E+01 0.00000E+00
 -1     20845 2.06269E+01 4.36546E+01 0.00000E+00
 -1     20846 3.53427E+01 4.87987E+01 0.00000E+00
 -1     20847 2.16199E+01 2.90092E+01 0.00000E+00
 -1     20848 3.61334E+01 4.24878E+01 0.00000E+00
 -1     20849 1.87574E+01 4.30689E+01 0.00000E+00
 -1     20850 3.84939E+01 4.95054E+01 0.00000E+00
 -1     20851 6.72281E+00 2.19010E+01 0.00000E+00
 -1     20852 6.75219E+00 3.19613E+01 0.00000E+00
 -1     20853 2.87464E+01 3.58000E+01 0.00000E+00
 -1     20854 3.89449E+01 4.75302E+01 0.00000E+00
 -1     20855 2.12070E+01 3.09172E+01 0.00000E+00
 -1     20856 3.01843E+01 3.71812E+01 0.00000E+00
 -1     20857 2.82615E+01 3.77922E+01 0.00000E+00
 -1     20858 9.18631E+00 3.83493E+01 0.00000E+00
 -1     20859 1.69198E+01 2.69500E+01 0.00000E+00
 -1     20860 6.72836E+00 1.79317E+01 0.00000E+00
 -1     20861 7.59583E+00 3.83444E+01 0.00000E+00
 -1     20862 2.58471E+01 4.34897E+01 0.00000E+00
 -1     20863 2.40647E+01 3.35730E+01 0.00000E+00
 -1     20864 3.14428E+01 4.52292E+01 0.00000E+00
 -1     20865 1.46189E+01 3.99303E+01 0.00000E+00
 -1     20866 1.27795E+01 3.92792E+01 0.00000E+00
 -1     20867 1.24347E+01 2.31506E+01 0.00000E+00
 -1     20868 2.26506E+01 3.22084E+01 0.00000E+00
 -1     20869 8.28535E+00 1.90648E+01 0.00000E+00
 -1     20870 8.03949E+00 2.08073E+01 0.00000E+00
 -1     20871 3.28291E+01 4.18456E+01 0.00000E+00
 -1     20872 1.83583E+01 2.82694E+01 0.00000E+00
 -1     20873 2.96628E+01 3.92138E+01 0.00000E+00
 -1     20874 8.53666E+00 2.69503E+01 0.00000E+00
 -1     20875 2.68183E+01 3.63732E+01 0.00000E+00
 -1     20876 8.65482E+00 2.48459E+01 0.00000E+00
 -1     20877 8.39523E+00 3.49838E+01 0.00000E+00
 -1     20878 3.12343E+01 4.05995E+01 0.00000E+00
 -1     20879 2.40002E+01 4.28684E+01 0.00000E+00
 -1     20880 1.39431E+01 2.44090E+01 0.00000E+00
 -1     20881 2.76303E+01 4.41792E+01 0.00000E+00
 -1     20882 1.54394E+01 2.56639E+01 0.00000E+00
 -1     20883 2.21105E+01 4.22989E+01 0.00000E+00
 -1     20884 1.97794E+01 2.96042E+01 0.00000E+00
 -1     20885 1.64713E+01 4.05601E+01 0.00000E+00
 -1     20886 3.70703E+01 4.79613E+01 0.00000E+00
 -1     20887 3.34302E+01 4.59455E+01 0.00000E+00
 -1     20888 3.53399E+01 4.68278E+01 0.00000E+00
 -1     20889 9.67625E+00 2.04315E+01 0.00000E+00
 -1     20890 1.09539E+01 3.86702E+01 0.00000E+00
 -1     20891 8.81456E+00 2.25659E+01 0.00000E+00
 -1     20892 2.54166E+01 3.50320E+01 0.00000E+00
 -1     20893 2.95301E+01 4.47211E+01 0.00000E+00
 -1     20894 2.02175E+01 4.17347E+01 0.00000E+00
 -1     20895 3.72380E+01 4.60147E+01 0.00000E+00
 -1     20896 8.43964E+00 3.30164E+01 0.00000E+00
 -1     20897 8.46419E+00 2.90002E+01 0.00000E+00
 -1     20898 3.53078E+01 4.45973E+01 0.00000E+00
 -1     20899 1.83362E+01 4.11588E+01 0.00000E+00
 -1     20900 1.02888E+01 2.59909E+01 0.00000E+00
 -1     20901 2.08062E+01 3.28091E+01 0.00000E+00
 -1     20902 1.09470E+01 2.18510E+01 0.00000E+00
 -1     20903 8.44123E+00 3.10197E+01 0.00000E+00
 -1     20904 1.41758E+01 3.79875E+01 0.00000E+00
 -1     20905 8.10219E+00 3.68003E+01 0.00000E+00
 -1     20906 1.01862E+01 3.64522E+01 0.00000E+00
 -1     20907 1.05132E+01 2.39060E+01 0.00000E+00
 -1     20908 3.29897E+01 4.39301E+01 0.00000E+00
 -1     20909 1.22959E+01 3.72418E+01 0.00000E+00
 -1     20910 3.43811E+01 4.27990E+01 0.00000E+00
 -1     20911 2.22540E+01 3.40100E+01 0.00000E+00
 -1     20912 1.65827E+01 2.88464E+01 0.00000E+00
 -1     20913 2.55718E+01 4.14596E+01 0.00000E+00
 -1     20914 2.74163E+01 3.99550E+01 0.00000E+00
 -1     20915 1.93599E+01 3.15364E+01 0.00000E+00
 -1     20916 3.09384E+01 4.29264E+01 0.00000E+00
 -1     20917 1.20956E+01 2.51439E+01 0.00000E+00
 -1     20918 2.36198E+01 4.09070E+01 0.00000E+00
 -1     20919 2.35696E+01 3.54560E+01 0.00000E+00
 -1     20920 1.51299E+01 2.75612E+01 0.00000E+00
 -1     20921 1.01628E+01 3.41566E+01 0.00000E+00
 -1     20922 2.16866E+01 4.03764E+01 0.00000E+00
 -1     20923 2.64626E+01 3.81772E+01 0.00000E+00
 -1     20924 2.74077E+01 4.21634E+01 0.00000E+00
 -1     20925 1.01457E+01 2.80386E+01 0.00000E+00
 -1     20926 1.60321E+01 3.86632E+01 0.00000E+00
 -1     20927 1.19705E+01 3.51744E+01 0.00000E+00
 -1     20928 1.36265E+01 2.63491E+01 0.00000E+00
 -1     20929 2.51369E+01 3.94764E+01 0.00000E+00
 -1     20930 1.79703E+01 3.01936E+01 0.00000E+00
 -1     20931 2.92835E+01 4.12290E+01 0.00000E+00
 -1     20932 2.04683E+01 3.47028E+01 0.00000E+00
 -1     20933 2.89834E+01 4.30252E+01 0.00000E+00
 -1     20934 2.47226E+01 3.72276E+01 0.00000E+00
 -1     20935 1.89836E+01 3.35039E+01 0.00000E+00
 -1     20936 1.38275E+01 3.60042E+01 0.00000E+00
 -1     20937 1.01097E+01 3.20923E+01 0.00000E+00
 -1     20938 1.00890E+01 3.00673E+01 0.00000E+00
 -1     20939 1.48628E+01 2.93955E+01 0.00000E+00
 -1     20940 2.31780E+01 3.89538E+01 0.00000E+00
 -1     20941 1.62185E+01 3.07426E+01 0.00000E+00
 -1     20942 2.18936E+01 3.56121E+01 0.00000E+00
 -1     20943 1.18200E+01 3.31288E+01 0.00000E+00
 -1     20944 1.18598E+01 2.71401E+01 0.00000E+00
 -1     20945 1.97660E+01 3.98279E+01 0.00000E+00
 -1     20946 1.78894E+01 3.92585E+01 0.00000E+00
 -1     20947 1.55886E+01 3.68028E+01 0.00000E+00
 -1     20948 1.75049E+01 3.21439E+01 0.00000E+00
 -1     20949 1.33847E+01 2.82712E+01 0.00000E+00
 -1     20950 1.36414E+01 3.40049E+01 0.00000E+00
 -1     20951 1.17042E+01 3.11239E+01 0.00000E+00
 -1     20952 1.32197E+01 3.01625E+01 0.00000E+00
 -1     20953 1.87281E+01 3.57078E+01 0.00000E+00
 -1     20954 2.06140E+01 3.66569E+01 0.00000E+00
 -1     20955 2.25731E+01 3.71532E+01 0.00000E+00
 -1     20956 1.17104E+01 2.91248E+01 0.00000E+00
 -1     20957 1.71674E+01 3.40516E+01 0.00000E+00
 -1     20958 1.53885E+01 3.48499E+01 0.00000E+00
 -1     20959 1.33674E+01 3.21066E+01 0.00000E+00
 -1     20960 2.11815E+01 3.85015E+01 0.00000E+00
 -1     20961 1.46206E+01 3.10635E+01 0.00000E+00
 -1     20962 1.54337E+01 3.27547E+01 0.00000E+00
 -1     20963 1.74381E+01 3.73897E+01 0.00000E+00
 -1     20964 1.92623E+01 3.79015E+01 0.00000E+00
 -1     20965 1.68937E+01 3.57516E+01 0.00000E+00
 -1     20966 2.06324E+00 4.71166E+00 5.00000E+00
 -1     20967 5.36988E+00 7.19754E+00 5.00000E+00
 -1     20968 8.10216E+00 1.00115E+01 5.00000E+00
 -1     20969 1.11372E+01 1.26496E+01 5.00000E+00
 -1     20970 1.40992E+01 1.52948E+01 5.00000E+00
 -1     20971 1.70199E+01 1.79416E+01 5.00000E+00
 -1     20972 1.99360E+01 2.05958E+01 5.00000E+00
 -1     20973 2.28419E+01 2.32652E+01 5.00000E+00
 -1     20974 2.57417E+01 2.59384E+01 5.00000E+00
 -1     20975 2.86493E+01 2.86031E+01 5.00000E+00
 -1     20976 3.15664E+01 3.12708E+01 5.00000E+00
 -1     20977 3.44787E+01 3.39532E+01 5.00000E+00
 -1     20978 3.73876E+01 3.66341E+01 5.00000E+00
 -1     20979 4.03130E+01 3.93029E+01 5.00000E+00
 -1     20980 4.32319E+01 4.20732E+01 5.00000E+00
 -1     20981 4.62459E+01 4.48186E+01 5.00000E+00
 -1     20982 4.60953E+01 4.69375E+01 5.00000E+00
 -1     20983 4.60478E+01 5.11590E+01 5.00000E+00
 -1     20984 4.61027E+01 5.53019E+01 5.00000E+00
 -1     20985 4.42570E+01 5.66921E+01 5.00000E+00
 -1     20986 4.04991E+01 5.53811E+01 5.00000E+00
 -1     20987 3.67023E+01 5.41943E+01 5.00000E+00
 -1     20988 3.28805E+01 5.30947E+01 5.00000E+00