
 displacements (vx,vy,vz) for set VERTEX and time  0.1000000E+01

     20412 -1.981345E+01  2.752100E+01  0.000000E+00
