    1C
    1UHash: PXJD0WWr, Date: 03/11/2021, Unit system: MM_TON_S_C         
    1UUSER                                                              
    1UDATE              13.march.2021                                   
    1UTIME              18:36:08                                        
    1UHOST                                                              
    1UPGM               CalculiX                                        
    1UVERSION           Version 2.17                             
    1UCOMPILETIME       Thu Jul 23 21:43:50 CEST 2020                    
    1UDIR                                                               
    1UDBN                                                               
    1UMAT    1RUBBER                                                    
    2C                           162                                     1
 -1       719 4.80000E+01 4.40000E+01 0.00000E+00
 -1       720 4.80000E+01 4.40000E+01 5.00000E+00
 -1       721 0.00000E+00 0.00000E+00 0.00000E+00
 -1       722 0.00000E+00 0.00000E+00 5.00000E+00
 -1       723 4.80000E+01 6.00000E+01 0.00000E+00
 -1       724 4.80000E+01 6.00000E+01 5.00000E+00
 -1       725 0.00000E+00 4.40000E+01 0.00000E+00
 -1       726 0.00000E+00 4.40000E+01 5.00000E+00
 -1       727 4.20000E+01 3.85000E+01 0.00000E+00
 -1       728 3.60000E+01 3.30000E+01 0.00000E+00
 -1       729 3.00000E+01 2.75000E+01 0.00000E+00
 -1       730 2.40000E+01 2.20000E+01 0.00000E+00
 -1       731 1.80000E+01 1.65000E+01 0.00000E+00
 -1       732 1.20000E+01 1.10000E+01 0.00000E+00
 -1       733 6.00000E+00 5.50000E+00 0.00000E+00
 -1       734 4.20000E+01 3.85000E+01 5.00000E+00
 -1       735 3.60000E+01 3.30000E+01 5.00000E+00
 -1       736 3.00000E+01 2.75000E+01 5.00000E+00
 -1       737 2.40000E+01 2.20000E+01 5.00000E+00
 -1       738 1.80000E+01 1.65000E+01 5.00000E+00
 -1       739 1.20000E+01 1.10000E+01 5.00000E+00
 -1       740 6.00000E+00 5.50000E+00 5.00000E+00
 -1       741 4.80000E+01 5.80000E+01 0.00000E+00
 -1       742 4.80000E+01 5.60000E+01 0.00000E+00
 -1       743 4.80000E+01 5.40000E+01 0.00000E+00
 -1       744 4.80000E+01 5.20000E+01 0.00000E+00
 -1       745 4.80000E+01 5.00000E+01 0.00000E+00
 -1       746 4.80000E+01 4.80000E+01 0.00000E+00
 -1       747 4.80000E+01 4.60000E+01 0.00000E+00
 -1       748 4.80000E+01 5.80000E+01 5.00000E+00
 -1       749 4.80000E+01 5.60000E+01 5.00000E+00
 -1       750 4.80000E+01 5.40000E+01 5.00000E+00
 -1       751 4.80000E+01 5.20000E+01 5.00000E+00
 -1       752 4.80000E+01 5.00000E+01 5.00000E+00
 -1       753 4.80000E+01 4.80000E+01 5.00000E+00
 -1       754 4.80000E+01 4.60000E+01 5.00000E+00
 -1       755 6.00000E+00 4.60000E+01 0.00000E+00
 -1       756 1.20000E+01 4.80000E+01 0.00000E+00
 -1       757 1.80000E+01 5.00000E+01 0.00000E+00
 -1       758 2.40000E+01 5.20000E+01 0.00000E+00
 -1       759 3.00000E+01 5.40000E+01 0.00000E+00
 -1       760 3.60000E+01 5.60000E+01 0.00000E+00
 -1       761 4.20000E+01 5.80000E+01 0.00000E+00
 -1       762 6.00000E+00 4.60000E+01 5.00000E+00
 -1       763 1.20000E+01 4.80000E+01 5.00000E+00
 -1       764 1.80000E+01 5.00000E+01 5.00000E+00
 -1       765 2.40000E+01 5.20000E+01 5.00000E+00
 -1       766 3.00000E+01 5.40000E+01 5.00000E+00
 -1       767 3.60000E+01 5.60000E+01 5.00000E+00
 -1       768 4.20000E+01 5.80000E+01 5.00000E+00
 -1       769 0.00000E+00 5.50000E+00 0.00000E+00
 -1       770 0.00000E+00 1.10000E+01 0.00000E+00
 -1       771 0.00000E+00 1.65000E+01 0.00000E+00
 -1       772 0.00000E+00 2.20000E+01 0.00000E+00
 -1       773 0.00000E+00 2.75000E+01 0.00000E+00
 -1       774 0.00000E+00 3.30000E+01 0.00000E+00
 -1       775 0.00000E+00 3.85000E+01 0.00000E+00
 -1       776 0.00000E+00 5.50000E+00 5.00000E+00
 -1       777 0.00000E+00 1.10000E+01 5.00000E+00
 -1       778 0.00000E+00 1.65000E+01 5.00000E+00
 -1       779 0.00000E+00 2.20000E+01 5.00000E+00
 -1       780 0.00000E+00 2.75000E+01 5.00000E+00
 -1       781 0.00000E+00 3.30000E+01 5.00000E+00
 -1       782 0.00000E+00 3.85000E+01 5.00000E+00
 -1       783 4.20000E+01 4.09375E+01 0.00000E+00
 -1       784 4.20000E+01 4.33750E+01 0.00000E+00
 -1       785 4.20000E+01 4.58125E+01 0.00000E+00
 -1       786 4.20000E+01 4.82500E+01 0.00000E+00
 -1       787 4.20000E+01 5.06875E+01 0.00000E+00
 -1       788 4.20000E+01 5.31250E+01 0.00000E+00
 -1       789 4.20000E+01 5.55625E+01 0.00000E+00
 -1       790 3.60000E+01 3.58750E+01 0.00000E+00
 -1       791 3.60000E+01 3.87500E+01 0.00000E+00
 -1       792 3.60000E+01 4.16250E+01 0.00000E+00
 -1       793 3.60000E+01 4.45000E+01 0.00000E+00
 -1       794 3.60000E+01 4.73750E+01 0.00000E+00
 -1       795 3.60000E+01 5.02500E+01 0.00000E+00
 -1       796 3.60000E+01 5.31250E+01 0.00000E+00
 -1       797 3.00000E+01 3.08125E+01 0.00000E+00
 -1       798 3.00000E+01 3.41250E+01 0.00000E+00
 -1       799 3.00000E+01 3.74375E+01 0.00000E+00
 -1       800 3.00000E+01 4.07500E+01 0.00000E+00
 -1       801 3.00000E+01 4.40625E+01 0.00000E+00
 -1       802 3.00000E+01 4.73750E+01 0.00000E+00
 -1       803 3.00000E+01 5.06875E+01 0.00000E+00
 -1       804 2.40000E+01 2.57500E+01 0.00000E+00
 -1       805 2.40000E+01 2.95000E+01 0.00000E+00
 -1       806 2.40000E+01 3.32500E+01 0.00000E+00
 -1       807 2.40000E+01 3.70000E+01 0.00000E+00
 -1       808 2.40000E+01 4.07500E+01 0.00000E+00
 -1       809 2.40000E+01 4.45000E+01 0.00000E+00
 -1       810 2.40000E+01 4.82500E+01 0.00000E+00
 -1       811 1.80000E+01 2.06875E+01 0.00000E+00
 -1       812 1.80000E+01 2.48750E+01 0.00000E+00
 -1       813 1.80000E+01 2.90625E+01 0.00000E+00
 -1       814 1.80000E+01 3.32500E+01 0.00000E+00
 -1       815 1.80000E+01 3.74375E+01 0.00000E+00
 -1       816 1.80000E+01 4.16250E+01 0.00000E+00
 -1       817 1.80000E+01 4.58125E+01 0.00000E+00
 -1       818 1.20000E+01 1.56250E+01 0.00000E+00
 -1       819 1.20000E+01 2.02500E+01 0.00000E+00
 -1       820 1.20000E+01 2.48750E+01 0.00000E+00
 -1       821 1.20000E+01 2.95000E+01 0.00000E+00
 -1       822 1.20000E+01 3.41250E+01 0.00000E+00
 -1       823 1.20000E+01 3.87500E+01 0.00000E+00
 -1       824 1.20000E+01 4.33750E+01 0.00000E+00
 -1       825 6.00000E+00 1.05625E+01 0.00000E+00
 -1       826 6.00000E+00 1.56250E+01 0.00000E+00
 -1       827 6.00000E+00 2.06875E+01 0.00000E+00
 -1       828 6.00000E+00 2.57500E+01 0.00000E+00
 -1       829 6.00000E+00 3.08125E+01 0.00000E+00
 -1       830 6.00000E+00 3.58750E+01 0.00000E+00
 -1       831 6.00000E+00 4.09375E+01 0.00000E+00
 -1       832 6.00000E+00 1.05625E+01 5.00000E+00
 -1       833 6.00000E+00 1.56250E+01 5.00000E+00
 -1       834 6.00000E+00 2.06875E+01 5.00000E+00
 -1       835 6.00000E+00 2.57500E+01 5.00000E+00
 -1       836 6.00000E+00 3.08125E+01 5.00000E+00
 -1       837 6.00000E+00 3.58750E+01 5.00000E+00
 -1       838 6.00000E+00 4.09375E+01 5.00000E+00
 -1       839 1.20000E+01 1.56250E+01 5.00000E+00
 -1       840 1.20000E+01 2.02500E+01 5.00000E+00
 -1       841 1.20000E+01 2.48750E+01 5.00000E+00
 -1       842 1.20000E+01 2.95000E+01 5.00000E+00
 -1       843 1.20000E+01 3.41250E+01 5.00000E+00
 -1       844 1.20000E+01 3.87500E+01 5.00000E+00
 -1       845 1.20000E+01 4.33750E+01 5.00000E+00
 -1       846 1.80000E+01 2.06875E+01 5.00000E+00
 -1       847 1.80000E+01 2.48750E+01 5.00000E+00
 -1       848 1.80000E+01 2.90625E+01 5.00000E+00
 -1       849 1.80000E+01 3.32500E+01 5.00000E+00
 -1       850 1.80000E+01 3.74375E+01 5.00000E+00
 -1       851 1.80000E+01 4.16250E+01 5.00000E+00
 -1       852 1.80000E+01 4.58125E+01 5.00000E+00
 -1       853 2.40000E+01 2.57500E+01 5.00000E+00
 -1       854 2.40000E+01 2.95000E+01 5.00000E+00
 -1       855 2.40000E+01 3.32500E+01 5.00000E+00
 -1       856 2.40000E+01 3.70000E+01 5.00000E+00
 -1       857 2.40000E+01 4.07500E+01 5.00000E+00
 -1       858 2.40000E+01 4.45000E+01 5.00000E+00
 -1       859 2.40000E+01 4.82500E+01 5.00000E+00
 -1       860 3.00000E+01 3.08125E+01 5.00000E+00
 -1       861 3.00000E+01 3.41250E+01 5.00000E+00
 -1       862 3.00000E+01 3.74375E+01 5.00000E+00
 -1       863 3.00000E+01 4.07500E+01 5.00000E+00
 -1       864 3.00000E+01 4.40625E+01 5.00000E+00
 -1       865 3.00000E+01 4.73750E+01 5.00000E+00
 -1       866 3.00000E+01 5.06875E+01 5.00000E+00
 -1       867 3.60000E+01 3.58750E+01 5.00000E+00
 -1       868 3.60000E+01 3.87500E+01 5.00000E+00
 -1       869 3.60000E+01 4.16250E+01 5.00000E+00
 -1       870 3.60000E+01 4.45000E+01 5.00000E+00
 -1       871 3.60000E+01 4.73750E+01 5.00000E+00
 -1       872 3.60000E+01 5.02500E+01 5.00000E+00
 -1       873 3.60000E+01 5.31250E+01 5.00000E+00
 -1       874 4.20000E+01 4.09375E+01 5.00000E+00
 -1       875 4.20000E+01 4.33750E+01 5.00000E+00
 -1       876 4.20000E+01 4.58125E+01 5.00000E+00
 -1       877 4.20000E+01 4.82500E+01 5.00000E+00
 -1       878 4.20000E+01 5.06875E+01 5.00000E+00
 -1       879 4.20000E+01 5.31250E+01 5.00000E+00
 -1       880 4.20000E+01 5.55625E+01 5.00000E+00
 -3
    3C                            64                                     1
 -1       568    1    0    1
 -2       720       719       727       734       754       747       783       874
 -1       569    1    0    1
 -2       754       747       783       874       753       746       784       875
 -1       570    1    0    1
 -2       753       746       784       875       752       745       785       876
 -1       571    1    0    1
 -2       752       745       785       876       751       744       786       877
 -1       572    1    0    1
 -2       751       744       786       877       750       743       787       878
 -1       573    1    0    1
 -2       750       743       787       878       749       742       788       879
 -1       574    1    0    1
 -2       749       742       788       879       748       741       789       880
 -1       575    1    0    1
 -2       748       741       789       880       724       723       761       768
 -1       576    1    0    1
 -2       734       727       728       735       874       783       790       867
 -1       577    1    0    1
 -2       874       783       790       867       875       784       791       868
 -1       578    1    0    1
 -2       875       784       791       868       876       785       792       869
 -1       579    1    0    1
 -2       876       785       792       869       877       786       793       870
 -1       580    1    0    1
 -2       877       786       793       870       878       787       794       871
 -1       581    1    0    1
 -2       878       787       794       871       879       788       795       872
 -1       582    1    0    1
 -2       879       788       795       872       880       789       796       873
 -1       583    1    0    1
 -2       880       789       796       873       768       761       760       767
 -1       584    1    0    1
 -2       735       728       729       736       867       790       797       860
 -1       585    1    0    1
 -2       867       790       797       860       868       791       798       861
 -1       586    1    0    1
 -2       868       791       798       861       869       792       799       862
 -1       587    1    0    1
 -2       869       792       799       862       870       793       800       863
 -1       588    1    0    1
 -2       870       793       800       863       871       794       801       864
 -1       589    1    0    1
 -2       871       794       801       864       872       795       802       865
 -1       590    1    0    1
 -2       872       795       802       865       873       796       803       866
 -1       591    1    0    1
 -2       873       796       803       866       767       760       759       766
 -1       592    1    0    1
 -2       736       729       730       737       860       797       804       853
 -1       593    1    0    1
 -2       860       797       804       853       861       798       805       854
 -1       594    1    0    1
 -2       861       798       805       854       862       799       806       855
 -1       595    1    0    1
 -2       862       799       806       855       863       800       807       856
 -1       596    1    0    1
 -2       863       800       807       856       864       801       808       857
 -1       597    1    0    1
 -2       864       801       808       857       865       802       809       858
 -1       598    1    0    1
 -2       865       802       809       858       866       803       810       859
 -1       599    1    0    1
 -2       866       803       810       859       766       759       758       765
 -1       600    1    0    1
 -2       737       730       731       738       853       804       811       846
 -1       601    1    0    1
 -2       853       804       811       846       854       805       812       847
 -1       602    1    0    1
 -2       854       805       812       847       855       806       813       848
 -1       603    1    0    1
 -2       855       806       813       848       856       807       814       849
 -1       604    1    0    1
 -2       856       807       814       849       857       808       815       850
 -1       605    1    0    1
 -2       857       808       815       850       858       809       816       851
 -1       606    1    0    1
 -2       858       809       816       851       859       810       817       852
 -1       607    1    0    1
 -2       859       810       817       852       765       758       757       764
 -1       608    1    0    1
 -2       738       731       732       739       846       811       818       839
 -1       609    1    0    1
 -2       846       811       818       839       847       812       819       840
 -1       610    1    0    1
 -2       847       812       819       840       848       813       820       841
 -1       611    1    0    1
 -2       848       813       820       841       849       814       821       842
 -1       612    1    0    1
 -2       849       814       821       842       850       815       822       843
 -1       613    1    0    1
 -2       850       815       822       843       851       816       823       844
 -1       614    1    0    1
 -2       851       816       823       844       852       817       824       845
 -1       615    1    0    1
 -2       852       817       824       845       764       757       756       763
 -1       616    1    0    1
 -2       739       732       733       740       839       818       825       832
 -1       617    1    0    1
 -2       839       818       825       832       840       819       826       833
 -1       618    1    0    1
 -2       840       819       826       833       841       820       827       834
 -1       619    1    0    1
 -2       841       820       827       834       842       821       828       835
 -1       620    1    0    1
 -2       842       821       828       835       843       822       829       836
 -1       621    1    0    1
 -2       843       822       829       836       844       823       830       837
 -1       622    1    0    1
 -2       844       823       830       837       845       824       831       838
 -1       623    1    0    1
 -2       845       824       831       838       763       756       755       762
 -1       624    1    0    1
 -2       740       733       721       722       832       825       769       776
 -1       625    1    0    1
 -2       832       825       769       776       833       826       770       777
 -1       626    1    0    1
 -2       833       826       770       777       834       827       771       778
 -1       627    1    0    1
 -2       834       827       771       778       835       828       772       779
 -1       628    1    0    1
 -2       835       828       772       779       836       829       773       780
 -1       629    1    0    1
 -2       836       829       773       780       837       830       774       781
 -1       630    1    0    1
 -2       837       830       774       781       838       831       775       782
 -1       631    1    0    1
 -2       838       831       775       782       762       755       725       726
 -3
    1PSTEP                         1           1           1          
  100CL  101 1.000000000         162                     0    1           1
 -4  DISP        4    1
 -5  D1          1    2    1    0
 -5  D2          1    2    2    0
 -5  D3          1    2    3    0
 -5  ALL         1    2    0    0    1ALL
 -1       719-1.05266E-01 7.64411E+00 0.00000E+00
 -1       720-1.05266E-01 7.64411E+00 0.00000E+00
 -1       721 0.00000E+00 0.00000E+00 0.00000E+00
 -1       722 0.00000E+00 0.00000E+00 0.00000E+00
 -1       723-2.76464E-01 7.64326E+00 0.00000E+00
 -1       724-2.76464E-01 7.64326E+00 0.00000E+00
 -1       725 0.00000E+00 0.00000E+00 0.00000E+00
 -1       726 0.00000E+00 0.00000E+00 0.00000E+00
 -1       727-7.48961E-02 6.12621E+00 0.00000E+00
 -1       728-4.86404E-02 4.85993E+00 0.00000E+00
 -1       729-2.80688E-02 3.77697E+00 0.00000E+00
 -1       730-1.34494E-02 2.83461E+00 0.00000E+00
 -1       731-4.40329E-03 2.00405E+00 0.00000E+00
 -1       732-1.03632E-04 1.26469E+00 0.00000E+00
 -1       733 6.90833E-04 6.00904E-01 0.00000E+00
 -1       734-7.48961E-02 6.12621E+00 0.00000E+00
 -1       735-4.86404E-02 4.85993E+00 0.00000E+00
 -1       736-2.80688E-02 3.77697E+00 0.00000E+00
 -1       737-1.34494E-02 2.83461E+00 0.00000E+00
 -1       738-4.40329E-03 2.00405E+00 0.00000E+00
 -1       739-1.03632E-04 1.26469E+00 0.00000E+00
 -1       740 6.90833E-04 6.00904E-01 0.00000E+00
 -1       741-2.38664E-01 7.64449E+00 0.00000E+00
 -1       742-2.07536E-01 7.64505E+00 0.00000E+00
 -1       743-1.81442E-01 7.64570E+00 0.00000E+00
 -1       744-1.59714E-01 7.64635E+00 0.00000E+00
 -1       745-1.41730E-01 7.64680E+00 0.00000E+00
 -1       746-1.26968E-01 7.64678E+00 0.00000E+00
 -1       747-1.14980E-01 7.64598E+00 0.00000E+00
 -1       748-2.38664E-01 7.64449E+00 0.00000E+00
 -1       749-2.07536E-01 7.64505E+00 0.00000E+00
 -1       750-1.81442E-01 7.64570E+00 0.00000E+00
 -1       751-1.59714E-01 7.64635E+00 0.00000E+00
 -1       752-1.41730E-01 7.64680E+00 0.00000E+00
 -1       753-1.26968E-01 7.64678E+00 0.00000E+00
 -1       754-1.14980E-01 7.64598E+00 0.00000E+00
 -1       755-1.19097E-02 6.37454E-01 0.00000E+00
 -1       756-3.81098E-02 1.32130E+00 0.00000E+00
 -1       757-7.28007E-02 2.06853E+00 0.00000E+00
 -1       758-1.12809E-01 2.89748E+00 0.00000E+00
 -1       759-1.55492E-01 3.83093E+00 0.00000E+00
 -1       760-1.98392E-01 4.89951E+00 0.00000E+00
 -1       761-2.39152E-01 6.14742E+00 0.00000E+00
 -1       762-1.19097E-02 6.37454E-01 0.00000E+00
 -1       763-3.81098E-02 1.32130E+00 0.00000E+00
 -1       764-7.28007E-02 2.06853E+00 0.00000E+00
 -1       765-1.12809E-01 2.89748E+00 0.00000E+00
 -1       766-1.55492E-01 3.83093E+00 0.00000E+00
 -1       767-1.98392E-01 4.89951E+00 0.00000E+00
 -1       768-2.39152E-01 6.14742E+00 0.00000E+00
 -1       769 0.00000E+00 0.00000E+00 0.00000E+00
 -1       770 0.00000E+00 0.00000E+00 0.00000E+00
 -1       771 0.00000E+00 0.00000E+00 0.00000E+00
 -1       772 0.00000E+00 0.00000E+00 0.00000E+00
 -1       773 0.00000E+00 0.00000E+00 0.00000E+00
 -1       774 0.00000E+00 0.00000E+00 0.00000E+00
 -1       775 0.00000E+00 0.00000E+00 0.00000E+00
 -1       776 0.00000E+00 0.00000E+00 0.00000E+00
 -1       777 0.00000E+00 0.00000E+00 0.00000E+00
 -1       778 0.00000E+00 0.00000E+00 0.00000E+00
 -1       779 0.00000E+00 0.00000E+00 0.00000E+00
 -1       780 0.00000E+00 0.00000E+00 0.00000E+00
 -1       781 0.00000E+00 0.00000E+00 0.00000E+00
 -1       782 0.00000E+00 0.00000E+00 0.00000E+00
 -1       783-8.48888E-02 6.12927E+00 0.00000E+00
 -1       784-9.59787E-02 6.13238E+00 0.00000E+00
 -1       785-1.09147E-01 6.13530E+00 0.00000E+00
 -1       786-1.25072E-01 6.13814E+00 0.00000E+00
 -1       787-1.44546E-01 6.14096E+00 0.00000E+00
 -1       788-1.68639E-01 6.14376E+00 0.00000E+00
 -1       789-1.98838E-01 6.14633E+00 0.00000E+00
 -1       790-5.81115E-02 4.86324E+00 0.00000E+00
 -1       791-6.79762E-02 4.86748E+00 0.00000E+00
 -1       792-7.92918E-02 4.87218E+00 0.00000E+00
 -1       793-9.28771E-02 4.87729E+00 0.00000E+00
 -1       794-1.09697E-01 4.88278E+00 0.00000E+00
 -1       795-1.31112E-01 4.88856E+00 0.00000E+00
 -1       796-1.59144E-01 4.89442E+00 0.00000E+00
 -1       797-3.63796E-02 3.77991E+00 0.00000E+00
 -1       798-4.45675E-02 3.78444E+00 0.00000E+00
 -1       799-5.36924E-02 3.79004E+00 0.00000E+00
 -1       800-6.45690E-02 3.79656E+00 0.00000E+00
 -1       801-7.81939E-02 3.80399E+00 0.00000E+00
 -1       802-9.60180E-02 3.81230E+00 0.00000E+00
 -1       803-1.20157E-01 3.82149E+00 0.00000E+00
 -1       804-2.01876E-02 2.83671E+00 0.00000E+00
 -1       805-2.63768E-02 2.84092E+00 0.00000E+00
 -1       806-3.30676E-02 2.84664E+00 0.00000E+00
 -1       807-4.09789E-02 2.85374E+00 0.00000E+00
 -1       808-5.09948E-02 2.86229E+00 0.00000E+00
 -1       809-6.44495E-02 2.87238E+00 0.00000E+00
 -1       810-8.33482E-02 2.88428E+00 0.00000E+00
 -1       811-9.33456E-03 2.00505E+00 0.00000E+00
 -1       812-1.34057E-02 2.00848E+00 0.00000E+00
 -1       813-1.76435E-02 2.01364E+00 0.00000E+00
 -1       814-2.26068E-02 2.02044E+00 0.00000E+00
 -1       815-2.89377E-02 2.02901E+00 0.00000E+00
 -1       816-3.76812E-02 2.03967E+00 0.00000E+00
 -1       817-5.05477E-02 2.05295E+00 0.00000E+00
 -1       818-3.15282E-03 1.26464E+00 0.00000E+00
 -1       819-5.22586E-03 1.26702E+00 0.00000E+00
 -1       820-7.29793E-03 1.27100E+00 0.00000E+00
 -1       821-9.70228E-03 1.27650E+00 0.00000E+00
 -1       822-1.27896E-02 1.28374E+00 0.00000E+00
 -1       823-1.71283E-02 1.29315E+00 0.00000E+00
 -1       824-2.38471E-02 1.30567E+00 0.00000E+00
 -1       825-5.49217E-04 6.00294E-01 0.00000E+00
 -1       826-1.06729E-03 6.01591E-01 0.00000E+00
 -1       827-1.63257E-03 6.03811E-01 0.00000E+00
 -1       828-2.27071E-03 6.07011E-01 0.00000E+00
 -1       829-3.07560E-03 6.11372E-01 0.00000E+00
 -1       830-4.30122E-03 6.17229E-01 0.00000E+00
 -1       831-5.87245E-03 6.25506E-01 0.00000E+00
 -1       832-5.49217E-04 6.00294E-01 0.00000E+00
 -1       833-1.06729E-03 6.01591E-01 0.00000E+00
 -1       834-1.63257E-03 6.03811E-01 0.00000E+00
 -1       835-2.27071E-03 6.07011E-01 0.00000E+00
 -1       836-3.07560E-03 6.11372E-01 0.00000E+00
 -1       837-4.30122E-03 6.17229E-01 0.00000E+00
 -1       838-5.87245E-03 6.25506E-01 0.00000E+00
 -1       839-3.15282E-03 1.26464E+00 0.00000E+00
 -1       840-5.22586E-03 1.26702E+00 0.00000E+00
 -1       841-7.29793E-03 1.27100E+00 0.00000E+00
 -1       842-9.70228E-03 1.27650E+00 0.00000E+00
 -1       843-1.27896E-02 1.28374E+00 0.00000E+00
 -1       844-1.71283E-02 1.29315E+00 0.00000E+00
 -1       845-2.38471E-02 1.30567E+00 0.00000E+00
 -1       846-9.33456E-03 2.00505E+00 0.00000E+00
 -1       847-1.34057E-02 2.00848E+00 0.00000E+00
 -1       848-1.76435E-02 2.01364E+00 0.00000E+00
 -1       849-2.26068E-02 2.02044E+00 0.00000E+00
 -1       850-2.89377E-02 2.02901E+00 0.00000E+00
 -1       851-3.76812E-02 2.03967E+00 0.00000E+00
 -1       852-5.05477E-02 2.05295E+00 0.00000E+00
 -1       853-2.01876E-02 2.83671E+00 0.00000E+00
 -1       854-2.63768E-02 2.84092E+00 0.00000E+00
 -1       855-3.30676E-02 2.84664E+00 0.00000E+00
 -1       856-4.09789E-02 2.85374E+00 0.00000E+00
 -1       857-5.09948E-02 2.86229E+00 0.00000E+00
 -1       858-6.44495E-02 2.87238E+00 0.00000E+00
 -1       859-8.33482E-02 2.88428E+00 0.00000E+00
 -1       860-3.63796E-02 3.77991E+00 0.00000E+00
 -1       861-4.45675E-02 3.78444E+00 0.00000E+00
 -1       862-5.36924E-02 3.79004E+00 0.00000E+00
 -1       863-6.45690E-02 3.79656E+00 0.00000E+00
 -1       864-7.81939E-02 3.80399E+00 0.00000E+00
 -1       865-9.60180E-02 3.81230E+00 0.00000E+00
 -1       866-1.20157E-01 3.82149E+00 0.00000E+00
 -1       867-5.81115E-02 4.86324E+00 0.00000E+00
 -1       868-6.79762E-02 4.86748E+00 0.00000E+00
 -1       869-7.92918E-02 4.87218E+00 0.00000E+00
 -1       870-9.28771E-02 4.87729E+00 0.00000E+00
 -1       871-1.09697E-01 4.88278E+00 0.00000E+00
 -1       872-1.31112E-01 4.88856E+00 0.00000E+00
 -1       873-1.59144E-01 4.89442E+00 0.00000E+00
 -1       874-8.48888E-02 6.12927E+00 0.00000E+00
 -1       875-9.59787E-02 6.13238E+00 0.00000E+00
 -1       876-1.09147E-01 6.13530E+00 0.00000E+00
 -1       877-1.25072E-01 6.13814E+00 0.00000E+00
 -1       878-1.44546E-01 6.14096E+00 0.00000E+00
 -1       879-1.68639E-01 6.14376E+00 0.00000E+00
 -1       880-1.98838E-01 6.14633E+00 0.00000E+00
 -3
    1PSTEP                         2           1           1          
  100CL  101 1.000000000         162                     0    1           1
 -4  STRESS      6    1
 -5  SXX         1    4    1    1
 -5  SYY         1    4    2    2
 -5  SZZ         1    4    3    3
 -5  SXY         1    4    1    2
 -5  SYZ         1    4    2    3
 -5  SZX         1    4    3    1
 -1       719 3.62940E+01 3.63677E+01 3.63236E+01 5.77016E+00 1.68782E-11-2.20406E-12
 -1       720 3.62940E+01 3.63677E+01 3.63236E+01 5.77016E+00 1.68776E-11-2.20405E-12
 -1       721 1.32752E+01 1.32701E+01 1.32700E+01 2.33695E+00-2.00827E-17-6.61557E-20
 -1       722 1.32752E+01 1.32701E+01 1.32700E+01 2.33695E+00-2.00827E-17 2.06541E-20
 -1       723-6.06280E+01-6.06571E+01-6.06304E+01 5.38278E+00 1.79909E-11-5.37861E-13
 -1       724-6.06280E+01-6.06571E+01-6.06304E+01 5.38278E+00 1.79909E-11-5.37931E-13
 -1       725-2.35897E+02-2.35806E+02-2.35804E+02 2.47967E+00-5.99551E-17 2.16965E-18
 -1       726-2.35897E+02-2.35806E+02-2.35804E+02 2.47967E+00-5.99551E-17 2.75671E-18
 -1       727 3.20584E+01 3.21629E+01 3.21042E+01 5.29182E+00 3.17121E-11-1.24921E-12
 -1       728 2.87827E+01 2.88783E+01 2.88247E+01 4.46714E+00-1.94602E-11-7.87623E-13
 -1       729 2.72001E+01 2.72715E+01 2.72303E+01 3.86122E+00 3.96655E-12-4.40699E-13
 -1       730 2.52269E+01 2.52685E+01 2.52427E+01 3.39398E+00-1.65807E-12-2.12967E-13
 -1       731 2.24552E+01 2.24680E+01 2.24571E+01 3.02044E+00-1.85723E-12-4.24796E-14
 -1       732 1.85992E+01 1.85905E+01 1.85912E+01 2.71349E+00-1.69281E-13 8.54730E-15
 -1       733 1.06443E+01 1.06288E+01 1.06344E+01 2.45616E+00-2.82751E-13 1.39867E-14
 -1       734 3.20584E+01 3.21629E+01 3.21042E+01 5.29182E+00 3.17124E-11-1.24925E-12
 -1       735 2.87827E+01 2.88783E+01 2.88247E+01 4.46714E+00-1.94551E-11-7.87581E-13
 -1       736 2.72001E+01 2.72715E+01 2.72303E+01 3.86122E+00 3.96354E-12-4.40708E-13
 -1       737 2.52269E+01 2.52685E+01 2.52427E+01 3.39398E+00-1.65863E-12-2.12971E-13
 -1       738 2.24552E+01 2.24680E+01 2.24571E+01 3.02044E+00-1.85723E-12-4.24783E-14
 -1       739 1.85992E+01 1.85905E+01 1.85912E+01 2.71349E+00-1.69599E-13 8.54671E-15
 -1       740 1.06443E+01 1.06288E+01 1.06344E+01 2.45616E+00-2.82535E-13 1.39861E-14
 -1       741-9.45858E+00-9.49242E+00-9.47361E+00 5.43040E+00 1.84156E-11-2.90680E-13
 -1       742 7.41151E+00 7.38489E+00 7.39672E+00 5.51023E+00 1.81735E-11-9.90128E-13
 -1       743 1.38597E+01 1.38288E+01 1.38415E+01 5.57902E+00 1.55763E-11-5.48185E-12
 -1       744 1.74001E+01 1.73724E+01 1.73828E+01 5.63927E+00 1.44778E-11-6.73711E-12
 -1       745 1.96297E+01 1.96163E+01 1.96191E+01 5.69000E+00 1.37654E-11-7.37673E-12
 -1       746 2.16047E+01 2.16187E+01 2.16074E+01 5.73052E+00 1.54062E-11-4.76321E-12
 -1       747 2.52839E+01 2.53380E+01 2.53059E+01 5.75924E+00 1.62851E-11-3.28977E-12
 -1       748-9.45858E+00-9.49242E+00-9.47361E+00 5.43040E+00 1.84178E-11-2.90748E-13
 -1       749 7.41151E+00 7.38489E+00 7.39672E+00 5.51023E+00 1.81726E-11-9.89961E-13
 -1       750 1.38597E+01 1.38288E+01 1.38415E+01 5.57902E+00 1.55765E-11-5.48162E-12
 -1       751 1.74001E+01 1.73724E+01 1.73828E+01 5.63927E+00 1.44772E-11-6.73730E-12
 -1       752 1.96297E+01 1.96163E+01 1.96191E+01 5.69000E+00 1.37643E-11-7.37673E-12
 -1       753 2.16047E+01 2.16187E+01 2.16074E+01 5.73052E+00 1.54066E-11-4.76336E-12
 -1       754 2.52839E+01 2.53380E+01 2.53059E+01 5.75924E+00 1.62823E-11-3.28975E-12
 -1       755-5.26230E+01-5.23840E+01-5.24930E+01 2.52378E+00 1.22838E-12-1.95633E-13
 -1       756-8.04235E+01-8.00769E+01-8.02342E+01 2.68532E+00 2.06788E-12-6.69940E-13
 -1       757-8.73325E+01-8.69504E+01-8.71240E+01 2.91291E+00 5.28600E-13-1.26862E-12
 -1       758-8.87428E+01-8.83779E+01-8.85426E+01 3.21741E+00 1.71218E-13-1.77968E-12
 -1       759-8.49492E+01-8.46473E+01-8.47813E+01 3.62319E+00 4.90244E-12-2.07871E-12
 -1       760-7.51343E+01-7.49361E+01-7.50202E+01 4.17357E+00-1.92570E-11-2.05411E-12
 -1       761-6.26060E+01-6.25359E+01-6.25585E+01 4.94736E+00 3.19598E-11-1.45877E-12
 -1       762-5.26230E+01-5.23840E+01-5.24930E+01 2.52378E+00 1.22838E-12-1.95634E-13
 -1       763-8.04235E+01-8.00769E+01-8.02342E+01 2.68532E+00 2.06865E-12-6.69936E-13
 -1       764-8.73325E+01-8.69504E+01-8.71240E+01 2.91291E+00 5.27273E-13-1.26862E-12
 -1       765-8.87428E+01-8.83779E+01-8.85426E+01 3.21741E+00 1.71283E-13-1.77968E-12
 -1       766-8.49492E+01-8.46473E+01-8.47813E+01 3.62319E+00 4.90332E-12-2.07860E-12
 -1       767-7.51343E+01-7.49361E+01-7.50202E+01 4.17357E+00-1.92570E-11-2.05418E-12
 -1       768-6.26060E+01-6.25359E+01-6.25585E+01 4.94736E+00 3.19598E-11-1.45863E-12
 -1       769-1.10135E+01-1.10091E+01-1.10091E+01 2.33461E+00 1.18717E-16 2.84018E-19
 -1       770-2.14224E+01-2.14143E+01-2.14141E+01 2.33970E+00-1.89181E-16 1.49329E-18
 -1       771-3.27080E+01-3.26956E+01-3.26952E+01 2.34837E+00 8.97594E-17 2.71901E-18
 -1       772-4.54555E+01-4.54382E+01-4.54378E+01 2.36085E+00-1.60006E-16 2.91968E-18
 -1       773-6.15490E+01-6.15256E+01-6.15250E+01 2.37785E+00-8.29046E-17 2.16633E-18
 -1       774-8.60177E+01-8.59851E+01-8.59842E+01 2.40069E+00 1.17140E-17 2.96552E-18
 -1       775-1.17773E+02-1.17729E+02-1.17728E+02 2.43307E+00-1.23136E-16 3.47687E-18