
 displacements (vx,vy,vz) for set VERTEX and time  0.1000000E+01

       724 -2.764637E-01  7.643265E+00  0.000000E+00
