    1C
    1UHash: PXJD0WWr, Date: 03/11/2021, Unit system: MM_TON_S_C         
    1UUSER                                                              
    1UDATE              13.march.2021                                   
    1UTIME              18:36:43                                        
    1UHOST                                                              
    1UPGM               CalculiX                                        
    1UVERSION           Version 2.17                             
    1UCOMPILETIME       Thu Jul 23 21:43:50 CEST 2020                    
    1UDIR                                                               
    1UDBN                                                               
    1UMAT    1RUBBER                                                    
    2C                           531                                     1
 -1      1037 4.80000E+01 4.40000E+01 0.00000E+00
 -1      1038 4.80000E+01 4.40000E+01 5.00000E+00
 -1      1039 0.00000E+00 0.00000E+00 0.00000E+00
 -1      1040 0.00000E+00 0.00000E+00 5.00000E+00
 -1      1041 4.80000E+01 6.00000E+01 0.00000E+00
 -1      1042 4.80000E+01 6.00000E+01 5.00000E+00
 -1      1043 0.00000E+00 4.40000E+01 0.00000E+00
 -1      1044 0.00000E+00 4.40000E+01 5.00000E+00
 -1      1045 4.20000E+01 3.85000E+01 0.00000E+00
 -1      1046 3.60000E+01 3.30000E+01 0.00000E+00
 -1      1047 3.00000E+01 2.75000E+01 0.00000E+00
 -1      1048 2.40000E+01 2.20000E+01 0.00000E+00
 -1      1049 1.80000E+01 1.65000E+01 0.00000E+00
 -1      1050 1.20000E+01 1.10000E+01 0.00000E+00
 -1      1051 6.00000E+00 5.50000E+00 0.00000E+00
 -1      1052 4.20000E+01 3.85000E+01 5.00000E+00
 -1      1053 3.60000E+01 3.30000E+01 5.00000E+00
 -1      1054 3.00000E+01 2.75000E+01 5.00000E+00
 -1      1055 2.40000E+01 2.20000E+01 5.00000E+00
 -1      1056 1.80000E+01 1.65000E+01 5.00000E+00
 -1      1057 1.20000E+01 1.10000E+01 5.00000E+00
 -1      1058 6.00000E+00 5.50000E+00 5.00000E+00
 -1      1059 4.80000E+01 5.80000E+01 0.00000E+00
 -1      1060 4.80000E+01 5.60000E+01 0.00000E+00
 -1      1061 4.80000E+01 5.40000E+01 0.00000E+00
 -1      1062 4.80000E+01 5.20000E+01 0.00000E+00
 -1      1063 4.80000E+01 5.00000E+01 0.00000E+00
 -1      1064 4.80000E+01 4.80000E+01 0.00000E+00
 -1      1065 4.80000E+01 4.60000E+01 0.00000E+00
 -1      1066 4.80000E+01 5.80000E+01 5.00000E+00
 -1      1067 4.80000E+01 5.60000E+01 5.00000E+00
 -1      1068 4.80000E+01 5.40000E+01 5.00000E+00
 -1      1069 4.80000E+01 5.20000E+01 5.00000E+00
 -1      1070 4.80000E+01 5.00000E+01 5.00000E+00
 -1      1071 4.80000E+01 4.80000E+01 5.00000E+00
 -1      1072 4.80000E+01 4.60000E+01 5.00000E+00
 -1      1073 6.00000E+00 4.60000E+01 0.00000E+00
 -1      1074 1.20000E+01 4.80000E+01 0.00000E+00
 -1      1075 1.80000E+01 5.00000E+01 0.00000E+00
 -1      1076 2.40000E+01 5.20000E+01 0.00000E+00
 -1      1077 3.00000E+01 5.40000E+01 0.00000E+00
 -1      1078 3.60000E+01 5.60000E+01 0.00000E+00
 -1      1079 4.20000E+01 5.80000E+01 0.00000E+00
 -1      1080 6.00000E+00 4.60000E+01 5.00000E+00
 -1      1081 1.20000E+01 4.80000E+01 5.00000E+00
 -1      1082 1.80000E+01 5.00000E+01 5.00000E+00
 -1      1083 2.40000E+01 5.20000E+01 5.00000E+00
 -1      1084 3.00000E+01 5.40000E+01 5.00000E+00
 -1      1085 3.60000E+01 5.60000E+01 5.00000E+00
 -1      1086 4.20000E+01 5.80000E+01 5.00000E+00
 -1      1087 0.00000E+00 5.50000E+00 0.00000E+00
 -1      1088 0.00000E+00 1.10000E+01 0.00000E+00
 -1      1089 0.00000E+00 1.65000E+01 0.00000E+00
 -1      1090 0.00000E+00 2.20000E+01 0.00000E+00
 -1      1091 0.00000E+00 2.75000E+01 0.00000E+00
 -1      1092 0.00000E+00 3.30000E+01 0.00000E+00
 -1      1093 0.00000E+00 3.85000E+01 0.00000E+00
 -1      1094 0.00000E+00 5.50000E+00 5.00000E+00
 -1      1095 0.00000E+00 1.10000E+01 5.00000E+00
 -1      1096 0.00000E+00 1.65000E+01 5.00000E+00
 -1      1097 0.00000E+00 2.20000E+01 5.00000E+00
 -1      1098 0.00000E+00 2.75000E+01 5.00000E+00
 -1      1099 0.00000E+00 3.30000E+01 5.00000E+00
 -1      1100 0.00000E+00 3.85000E+01 5.00000E+00
 -1      1101 4.20000E+01 4.09375E+01 0.00000E+00
 -1      1102 4.20000E+01 4.33750E+01 0.00000E+00
 -1      1103 4.20000E+01 4.58125E+01 0.00000E+00
 -1      1104 4.20000E+01 4.82500E+01 0.00000E+00
 -1      1105 4.20000E+01 5.06875E+01 0.00000E+00
 -1      1106 4.20000E+01 5.31250E+01 0.00000E+00
 -1      1107 4.20000E+01 5.55625E+01 0.00000E+00
 -1      1108 3.60000E+01 3.58750E+01 0.00000E+00
 -1      1109 3.60000E+01 3.87500E+01 0.00000E+00
 -1      1110 3.60000E+01 4.16250E+01 0.00000E+00
 -1      1111 3.60000E+01 4.45000E+01 0.00000E+00
 -1      1112 3.60000E+01 4.73750E+01 0.00000E+00
 -1      1113 3.60000E+01 5.02500E+01 0.00000E+00
 -1      1114 3.60000E+01 5.31250E+01 0.00000E+00
 -1      1115 3.00000E+01 3.08125E+01 0.00000E+00
 -1      1116 3.00000E+01 3.41250E+01 0.00000E+00
 -1      1117 3.00000E+01 3.74375E+01 0.00000E+00
 -1      1118 3.00000E+01 4.07500E+01 0.00000E+00
 -1      1119 3.00000E+01 4.40625E+01 0.00000E+00
 -1      1120 3.00000E+01 4.73750E+01 0.00000E+00
 -1      1121 3.00000E+01 5.06875E+01 0.00000E+00
 -1      1122 2.40000E+01 2.57500E+01 0.00000E+00
 -1      1123 2.40000E+01 2.95000E+01 0.00000E+00
 -1      1124 2.40000E+01 3.32500E+01 0.00000E+00
 -1      1125 2.40000E+01 3.70000E+01 0.00000E+00
 -1      1126 2.40000E+01 4.07500E+01 0.00000E+00
 -1      1127 2.40000E+01 4.45000E+01 0.00000E+00
 -1      1128 2.40000E+01 4.82500E+01 0.00000E+00
 -1      1129 1.80000E+01 2.06875E+01 0.00000E+00
 -1      1130 1.80000E+01 2.48750E+01 0.00000E+00
 -1      1131 1.80000E+01 2.90625E+01 0.00000E+00
 -1      1132 1.80000E+01 3.32500E+01 0.00000E+00
 -1      1133 1.80000E+01 3.74375E+01 0.00000E+00
 -1      1134 1.80000E+01 4.16250E+01 0.00000E+00
 -1      1135 1.80000E+01 4.58125E+01 0.00000E+00
 -1      1136 1.20000E+01 1.56250E+01 0.00000E+00
 -1      1137 1.20000E+01 2.02500E+01 0.00000E+00
 -1      1138 1.20000E+01 2.48750E+01 0.00000E+00
 -1      1139 1.20000E+01 2.95000E+01 0.00000E+00
 -1      1140 1.20000E+01 3.41250E+01 0.00000E+00
 -1      1141 1.20000E+01 3.87500E+01 0.00000E+00
 -1      1142 1.20000E+01 4.33750E+01 0.00000E+00
 -1      1143 6.00000E+00 1.05625E+01 0.00000E+00
 -1      1144 6.00000E+00 1.56250E+01 0.00000E+00
 -1      1145 6.00000E+00 2.06875E+01 0.00000E+00
 -1      1146 6.00000E+00 2.57500E+01 0.00000E+00
 -1      1147 6.00000E+00 3.08125E+01 0.00000E+00
 -1      1148 6.00000E+00 3.58750E+01 0.00000E+00
 -1      1149 6.00000E+00 4.09375E+01 0.00000E+00
 -1      1150 6.00000E+00 1.05625E+01 5.00000E+00
 -1      1151 6.00000E+00 1.56250E+01 5.00000E+00
 -1      1152 6.00000E+00 2.06875E+01 5.00000E+00
 -1      1153 6.00000E+00 2.57500E+01 5.00000E+00
 -1      1154 6.00000E+00 3.08125E+01 5.00000E+00
 -1      1155 6.00000E+00 3.58750E+01 5.00000E+00
 -1      1156 6.00000E+00 4.09375E+01 5.00000E+00
 -1      1157 1.20000E+01 1.56250E+01 5.00000E+00
 -1      1158 1.20000E+01 2.02500E+01 5.00000E+00
 -1      1159 1.20000E+01 2.48750E+01 5.00000E+00
 -1      1160 1.20000E+01 2.95000E+01 5.00000E+00
 -1      1161 1.20000E+01 3.41250E+01 5.00000E+00
 -1      1162 1.20000E+01 3.87500E+01 5.00000E+00
 -1      1163 1.20000E+01 4.33750E+01 5.00000E+00
 -1      1164 1.80000E+01 2.06875E+01 5.00000E+00
 -1      1165 1.80000E+01 2.48750E+01 5.00000E+00
 -1      1166 1.80000E+01 2.90625E+01 5.00000E+00
 -1      1167 1.80000E+01 3.32500E+01 5.00000E+00
 -1      1168 1.80000E+01 3.74375E+01 5.00000E+00
 -1      1169 1.80000E+01 4.16250E+01 5.00000E+00
 -1      1170 1.80000E+01 4.58125E+01 5.00000E+00
 -1      1171 2.40000E+01 2.57500E+01 5.00000E+00
 -1      1172 2.40000E+01 2.95000E+01 5.00000E+00
 -1      1173 2.40000E+01 3.32500E+01 5.00000E+00
 -1      1174 2.40000E+01 3.70000E+01 5.00000E+00
 -1      1175 2.40000E+01 4.07500E+01 5.00000E+00
 -1      1176 2.40000E+01 4.45000E+01 5.00000E+00
 -1      1177 2.40000E+01 4.82500E+01 5.00000E+00
 -1      1178 3.00000E+01 3.08125E+01 5.00000E+00
 -1      1179 3.00000E+01 3.41250E+01 5.00000E+00
 -1      1180 3.00000E+01 3.74375E+01 5.00000E+00
 -1      1181 3.00000E+01 4.07500E+01 5.00000E+00
 -1      1182 3.00000E+01 4.40625E+01 5.00000E+00
 -1      1183 3.00000E+01 4.73750E+01 5.00000E+00
 -1      1184 3.00000E+01 5.06875E+01 5.00000E+00
 -1      1185 3.60000E+01 3.58750E+01 5.00000E+00
 -1      1186 3.60000E+01 3.87500E+01 5.00000E+00
 -1      1187 3.60000E+01 4.16250E+01 5.00000E+00
 -1      1188 3.60000E+01 4.45000E+01 5.00000E+00
 -1      1189 3.60000E+01 4.73750E+01 5.00000E+00
 -1      1190 3.60000E+01 5.02500E+01 5.00000E+00
 -1      1191 3.60000E+01 5.31250E+01 5.00000E+00
 -1      1192 4.20000E+01 4.09375E+01 5.00000E+00
 -1      1193 4.20000E+01 4.33750E+01 5.00000E+00
 -1      1194 4.20000E+01 4.58125E+01 5.00000E+00
 -1      1195 4.20000E+01 4.82500E+01 5.00000E+00
 -1      1196 4.20000E+01 5.06875E+01 5.00000E+00
 -1      1197 4.20000E+01 5.31250E+01 5.00000E+00
 -1      1198 4.20000E+01 5.55625E+01 5.00000E+00
 -1      1199 4.80000E+01 4.40000E+01 2.50000E+00
 -1      1200 0.00000E+00 0.00000E+00 2.50000E+00
 -1      1201 4.50000E+01 4.12500E+01 0.00000E+00
 -1      1202 3.90000E+01 3.57500E+01 0.00000E+00
 -1      1203 3.30000E+01 3.02500E+01 0.00000E+00
 -1      1204 2.70000E+01 2.47500E+01 0.00000E+00
 -1      1205 2.10000E+01 1.92500E+01 0.00000E+00
 -1      1206 1.50000E+01 1.37500E+01 0.00000E+00
 -1      1207 9.00000E+00 8.25000E+00 0.00000E+00
 -1      1208 3.00000E+00 2.75000E+00 0.00000E+00
 -1      1209 4.50000E+01 4.12500E+01 5.00000E+00
 -1      1210 3.90000E+01 3.57500E+01 5.00000E+00
 -1      1211 3.30000E+01 3.02500E+01 5.00000E+00
 -1      1212 2.70000E+01 2.47500E+01 5.00000E+00
 -1      1213 2.10000E+01 1.92500E+01 5.00000E+00
 -1      1214 1.50000E+01 1.37500E+01 5.00000E+00
 -1      1215 9.00000E+00 8.25000E+00 5.00000E+00
 -1      1216 3.00000E+00 2.75000E+00 5.00000E+00
 -1      1217 4.80000E+01 6.00000E+01 2.50000E+00
 -1      1218 4.80000E+01 5.90000E+01 0.00000E+00
 -1      1219 4.80000E+01 5.70000E+01 0.00000E+00
 -1      1220 4.80000E+01 5.50000E+01 0.00000E+00
 -1      1221 4.80000E+01 5.30000E+01 0.00000E+00
 -1      1222 4.80000E+01 5.10000E+01 0.00000E+00
 -1      1223 4.80000E+01 4.90000E+01 0.00000E+00
 -1      1224 4.80000E+01 4.70000E+01 0.00000E+00
 -1      1225 4.80000E+01 4.50000E+01 0.00000E+00
 -1      1226 4.80000E+01 5.90000E+01 5.00000E+00
 -1      1227 4.80000E+01 5.70000E+01 5.00000E+00
 -1      1228 4.80000E+01 5.50000E+01 5.00000E+00
 -1      1229 4.80000E+01 5.30000E+01 5.00000E+00
 -1      1230 4.80000E+01 5.10000E+01 5.00000E+00
 -1      1231 4.80000E+01 4.90000E+01 5.00000E+00
 -1      1232 4.80000E+01 4.70000E+01 5.00000E+00
 -1      1233 4.80000E+01 4.50000E+01 5.00000E+00
 -1      1234 0.00000E+00 4.40000E+01 2.50000E+00
 -1      1235 3.00000E+00 4.50000E+01 0.00000E+00
 -1      1236 9.00000E+00 4.70000E+01 0.00000E+00
 -1      1237 1.50000E+01 4.90000E+01 0.00000E+00
 -1      1238 2.10000E+01 5.10000E+01 0.00000E+00
 -1      1239 2.70000E+01 5.30000E+01 0.00000E+00
 -1      1240 3.30000E+01 5.50000E+01 0.00000E+00
 -1      1241 3.90000E+01 5.70000E+01 0.00000E+00
 -1      1242 4.50000E+01 5.90000E+01 0.00000E+00
 -1      1243 3.00000E+00 4.50000E+01 5.00000E+00
 -1      1244 9.00000E+00 4.70000E+01 5.00000E+00
 -1      1245 1.50000E+01 4.90000E+01 5.00000E+00
 -1      1246 2.10000E+01 5.10000E+01 5.00000E+00
 -1      1247 2.70000E+01 5.30000E+01 5.00000E+00
 -1      1248 3.30000E+01 5.50000E+01 5.00000E+00
 -1      1249 3.90000E+01 5.70000E+01 5.00000E+00
 -1      1250 4.50000E+01 5.90000E+01 5.00000E+00
 -1      1251 0.00000E+00 2.75000E+00 0.00000E+00
 -1      1252 0.00000E+00 8.25000E+00 0.00000E+00
 -1      1253 0.00000E+00 1.37500E+01 0.00000E+00
 -1      1254 0.00000E+00 1.92500E+01 0.00000E+00
 -1      1255 0.00000E+00 2.47500E+01 0.00000E+00
 -1      1256 0.00000E+00 3.02500E+01 0.00000E+00
 -1      1257 0.00000E+00 3.57500E+01 0.00000E+00
 -1      1258 0.00000E+00 4.12500E+01 0.00000E+00
 -1      1259 0.00000E+00 2.75000E+00 5.00000E+00
 -1      1260 0.00000E+00 8.25000E+00 5.00000E+00
 -1      1261 0.00000E+00 1.37500E+01 5.00000E+00
 -1      1262 0.00000E+00 1.92500E+01 5.00000E+00
 -1      1263 0.00000E+00 2.47500E+01 5.00000E+00
 -1      1264 0.00000E+00 3.02500E+01 5.00000E+00
 -1      1265 0.00000E+00 3.57500E+01 5.00000E+00
 -1      1266 0.00000E+00 4.12500E+01 5.00000E+00
 -1      1267 4.20000E+01 3.85000E+01 2.50000E+00
 -1      1268 3.60000E+01 3.30000E+01 2.50000E+00
 -1      1269 3.00000E+01 2.75000E+01 2.50000E+00
 -1      1270 2.40000E+01 2.20000E+01 2.50000E+00
 -1      1271 1.80000E+01 1.65000E+01 2.50000E+00
 -1      1272 1.20000E+01 1.10000E+01 2.50000E+00
 -1      1273 6.00000E+00 5.50000E+00 2.50000E+00
 -1      1274 4.80000E+01 5.80000E+01 2.50000E+00
 -1      1275 4.80000E+01 5.60000E+01 2.50000E+00
 -1      1276 4.80000E+01 5.40000E+01 2.50000E+00
 -1      1277 4.80000E+01 5.20000E+01 2.50000E+00
 -1      1278 4.80000E+01 5.00000E+01 2.50000E+00
 -1      1279 4.80000E+01 4.80000E+01 2.50000E+00
 -1      1280 4.80000E+01 4.60000E+01 2.50000E+00
 -1      1281 6.00000E+00 4.60000E+01 2.50000E+00
 -1      1282 1.20000E+01 4.80000E+01 2.50000E+00
 -1      1283 1.80000E+01 5.00000E+01 2.50000E+00
 -1      1284 2.40000E+01 5.20000E+01 2.50000E+00
 -1      1285 3.00000E+01 5.40000E+01 2.50000E+00
 -1      1286 3.60000E+01 5.60000E+01 2.50000E+00
 -1      1287 4.20000E+01 5.80000E+01 2.50000E+00
 -1      1288 0.00000E+00 5.50000E+00 2.50000E+00
 -1      1289 0.00000E+00 1.10000E+01 2.50000E+00
 -1      1290 0.00000E+00 1.65000E+01 2.50000E+00
 -1      1291 0.00000E+00 2.20000E+01 2.50000E+00
 -1      1292 0.00000E+00 2.75000E+01 2.50000E+00
 -1      1293 0.00000E+00 3.30000E+01 2.50000E+00
 -1      1294 0.00000E+00 3.85000E+01 2.50000E+00
 -1      1295 4.20000E+01 3.97188E+01 0.00000E+00
 -1      1296 4.50000E+01 4.34688E+01 0.00000E+00
 -1      1297 4.20000E+01 4.21562E+01 0.00000E+00
 -1      1298 4.50000E+01 4.56875E+01 0.00000E+00
 -1      1299 4.20000E+01 4.45938E+01 0.00000E+00
 -1      1300 4.50000E+01 4.79062E+01 0.00000E+00
 -1      1301 4.20000E+01 4.70312E+01 0.00000E+00
 -1      1302 4.50000E+01 5.01250E+01 0.00000E+00
 -1      1303 4.20000E+01 4.94688E+01 0.00000E+00
 -1      1304 4.50000E+01 5.23438E+01 0.00000E+00
 -1      1305 4.20000E+01 5.19062E+01 0.00000E+00
 -1      1306 4.50000E+01 5.45625E+01 0.00000E+00
 -1      1307 4.20000E+01 5.43438E+01 0.00000E+00
 -1      1308 4.50000E+01 5.67812E+01 0.00000E+00
 -1      1309 4.20000E+01 5.67812E+01 0.00000E+00
 -1      1310 3.60000E+01 3.44375E+01 0.00000E+00
 -1      1311 3.90000E+01 3.84062E+01 0.00000E+00
 -1      1312 3.60000E+01 3.73125E+01 0.00000E+00
 -1      1313 3.90000E+01 4.10625E+01 0.00000E+00
 -1      1314 3.60000E+01 4.01875E+01 0.00000E+00
 -1      1315 3.90000E+01 4.37188E+01 0.00000E+00
 -1      1316 3.60000E+01 4.30625E+01 0.00000E+00
 -1      1317 3.90000E+01 4.63750E+01 0.00000E+00
 -1      1318 3.60000E+01 4.59375E+01 0.00000E+00
 -1      1319 3.90000E+01 4.90312E+01 0.00000E+00
 -1      1320 3.60000E+01 4.88125E+01 0.00000E+00
 -1      1321 3.90000E+01 5.16875E+01 0.00000E+00
 -1      1322 3.60000E+01 5.16875E+01 0.00000E+00
 -1      1323 3.90000E+01 5.43438E+01 0.00000E+00
 -1      1324 3.60000E+01 5.45625E+01 0.00000E+00
 -1      1325 3.00000E+01 2.91562E+01 0.00000E+00
 -1      1326 3.30000E+01 3.33438E+01 0.00000E+00
 -1      1327 3.00000E+01 3.24688E+01 0.00000E+00
 -1      1328 3.30000E+01 3.64375E+01 0.00000E+00
 -1      1329 3.00000E+01 3.57812E+01 0.00000E+00
 -1      1330 3.30000E+01 3.95312E+01 0.00000E+00
 -1      1331 3.00000E+01 3.90938E+01 0.00000E+00
 -1      1332 3.30000E+01 4.26250E+01 0.00000E+00
 -1      1333 3.00000E+01 4.24062E+01 0.00000E+00
 -1      1334 3.30000E+01 4.57188E+01 0.00000E+00
 -1      1335 3.00000E+01 4.57188E+01 0.00000E+00
 -1      1336 3.30000E+01 4.88125E+01 0.00000E+00
 -1      1337 3.00000E+01 4.90312E+01 0.00000E+00
 -1      1338 3.30000E+01 5.19062E+01 0.00000E+00
 -1      1339 3.00000E+01 5.23438E+01 0.00000E+00
 -1      1340 2.40000E+01 2.38750E+01 0.00000E+00
 -1      1341 2.70000E+01 2.82812E+01 0.00000E+00
 -1      1342 2.40000E+01 2.76250E+01 0.00000E+00
 -1      1343 2.70000E+01 3.18125E+01 0.00000E+00
 -1      1344 2.40000E+01 3.13750E+01 0.00000E+00
 -1      1345 2.70000E+01 3.53438E+01 0.00000E+00
 -1      1346 2.40000E+01 3.51250E+01 0.00000E+00
 -1      1347 2.70000E+01 3.88750E+01 0.00000E+00
 -1      1348 2.40000E+01 3.88750E+01 0.00000E+00
 -1      1349 2.70000E+01 4.24062E+01 0.00000E+00
 -1      1350 2.40000E+01 4.26250E+01 0.00000E+00
 -1      1351 2.70000E+01 4.59375E+01 0.00000E+00
 -1      1352 2.40000E+01 4.63750E+01 0.00000E+00
 -1      1353 2.70000E+01 4.94688E+01 0.00000E+00
 -1      1354 2.40000E+01 5.01250E+01 0.00000E+00
 -1      1355 1.80000E+01 1.85938E+01 0.00000E+00
 -1      1356 2.10000E+01 2.32188E+01 0.00000E+00
 -1      1357 1.80000E+01 2.27812E+01 0.00000E+00
 -1      1358 2.10000E+01 2.71875E+01 0.00000E+00
 -1      1359 1.80000E+01 2.69688E+01 0.00000E+00
 -1      1360 2.10000E+01 3.11562E+01 0.00000E+00
 -1      1361 1.80000E+01 3.11562E+01 0.00000E+00
 -1      1362 2.10000E+01 3.51250E+01 0.00000E+00
 -1      1363 1.80000E+01 3.53438E+01 0.00000E+00
 -1      1364 2.10000E+01 3.90938E+01 0.00000E+00
 -1      1365 1.80000E+01 3.95312E+01 0.00000E+00
 -1      1366 2.10000E+01 4.30625E+01 0.00000E+00
 -1      1367 1.80000E+01 4.37188E+01 0.00000E+00
 -1      1368 2.10000E+01 4.70312E+01 0.00000E+00
 -1      1369 1.80000E+01 4.79062E+01 0.00000E+00
 -1      1370 1.20000E+01 1.33125E+01 0.00000E+00
 -1      1371 1.50000E+01 1.81562E+01 0.00000E+00
 -1      1372 1.20000E+01 1.79375E+01 0.00000E+00
 -1      1373 1.50000E+01 2.25625E+01 0.00000E+00
 -1      1374 1.20000E+01 2.25625E+01 0.00000E+00
 -1      1375 1.50000E+01 2.69688E+01 0.00000E+00
 -1      1376 1.20000E+01 2.71875E+01 0.00000E+00
 -1      1377 1.50000E+01 3.13750E+01 0.00000E+00
 -1      1378 1.20000E+01 3.18125E+01 0.00000E+00
 -1      1379 1.50000E+01 3.57812E+01 0.00000E+00
 -1      1380 1.20000E+01 3.64375E+01 0.00000E+00
 -1      1381 1.50000E+01 4.01875E+01 0.00000E+00
 -1      1382 1.20000E+01 4.10625E+01 0.00000E+00
 -1      1383 1.50000E+01 4.45938E+01 0.00000E+00
 -1      1384 1.20000E+01 4.56875E+01 0.00000E+00
 -1      1385 6.00000E+00 8.03125E+00 0.00000E+00
 -1      1386 9.00000E+00 1.30938E+01 0.00000E+00
 -1      1387 6.00000E+00 1.30938E+01 0.00000E+00
 -1      1388 9.00000E+00 1.79375E+01 0.00000E+00
 -1      1389 6.00000E+00 1.81562E+01 0.00000E+00
 -1      1390 9.00000E+00 2.27812E+01 0.00000E+00
 -1      1391 6.00000E+00 2.32188E+01 0.00000E+00
 -1      1392 9.00000E+00 2.76250E+01 0.00000E+00
 -1      1393 6.00000E+00 2.82812E+01 0.00000E+00
 -1      1394 9.00000E+00 3.24688E+01 0.00000E+00
 -1      1395 6.00000E+00 3.33438E+01 0.00000E+00
 -1      1396 9.00000E+00 3.73125E+01 0.00000E+00
 -1      1397 6.00000E+00 3.84062E+01 0.00000E+00
 -1      1398 9.00000E+00 4.21562E+01 0.00000E+00
 -1      1399 6.00000E+00 4.34688E+01 0.00000E+00
 -1      1400 3.00000E+00 8.03125E+00 0.00000E+00
 -1      1401 3.00000E+00 1.33125E+01 0.00000E+00
 -1      1402 3.00000E+00 1.85938E+01 0.00000E+00
 -1      1403 3.00000E+00 2.38750E+01 0.00000E+00
 -1      1404 3.00000E+00 2.91562E+01 0.00000E+00
 -1      1405 3.00000E+00 3.44375E+01 0.00000E+00
 -1      1406 3.00000E+00 3.97188E+01 0.00000E+00
 -1      1407 6.00000E+00 8.03125E+00 5.00000E+00
 -1      1408 3.00000E+00 8.03125E+00 5.00000E+00
 -1      1409 6.00000E+00 1.30938E+01 5.00000E+00
 -1      1410 3.00000E+00 1.33125E+01 5.00000E+00
 -1      1411 6.00000E+00 1.81562E+01 5.00000E+00
 -1      1412 3.00000E+00 1.85938E+01 5.00000E+00
 -1      1413 6.00000E+00 2.32188E+01 5.00000E+00
 -1      1414 3.00000E+00 2.38750E+01 5.00000E+00
 -1      1415 6.00000E+00 2.82812E+01 5.00000E+00
 -1      1416 3.00000E+00 2.91562E+01 5.00000E+00
 -1      1417 6.00000E+00 3.33438E+01 5.00000E+00
 -1      1418 3.00000E+00 3.44375E+01 5.00000E+00
 -1      1419 6.00000E+00 3.84062E+01 5.00000E+00
 -1      1420 3.00000E+00 3.97188E+01 5.00000E+00
 -1      1421 6.00000E+00 4.34688E+01 5.00000E+00
 -1      1422 1.20000E+01 1.33125E+01 5.00000E+00
 -1      1423 9.00000E+00 1.30938E+01 5.00000E+00
 -1      1424 1.20000E+01 1.79375E+01 5.00000E+00
 -1      1425 9.00000E+00 1.79375E+01 5.00000E+00
 -1      1426 1.20000E+01 2.25625E+01 5.00000E+00
 -1      1427 9.00000E+00 2.27812E+01 5.00000E+00
 -1      1428 1.20000E+01 2.71875E+01 5.00000E+00
 -1      1429 9.00000E+00 2.76250E+01 5.00000E+00
 -1      1430 1.20000E+01 3.18125E+01 5.00000E+00
 -1      1431 9.00000E+00 3.24688E+01 5.00000E+00
 -1      1432 1.20000E+01 3.64375E+01 5.00000E+00
 -1      1433 9.00000E+00 3.73125E+01 5.00000E+00
 -1      1434 1.20000E+01 4.10625E+01 5.00000E+00
 -1      1435 9.00000E+00 4.21562E+01 5.00000E+00
 -1      1436 1.20000E+01 4.56875E+01 5.00000E+00
 -1      1437 1.80000E+01 1.85938E+01 5.00000E+00
 -1      1438 1.50000E+01 1.81562E+01 5.00000E+00
 -1      1439 1.80000E+01 2.27812E+01 5.00000E+00
 -1      1440 1.50000E+01 2.25625E+01 5.00000E+00
 -1      1441 1.80000E+01 2.69688E+01 5.00000E+00
 -1      1442 1.50000E+01 2.69688E+01 5.00000E+00
 -1      1443 1.80000E+01 3.11562E+01 5.00000E+00
 -1      1444 1.50000E+01 3.13750E+01 5.00000E+00
 -1      1445 1.80000E+01 3.53438E+01 5.00000E+00
 -1      1446 1.50000E+01 3.57812E+01 5.00000E+00
 -1      1447 1.80000E+01 3.95312E+01 5.00000E+00
 -1      1448 1.50000E+01 4.01875E+01 5.00000E+00
 -1      1449 1.80000E+01 4.37188E+01 5.00000E+00
 -1      1450 1.50000E+01 4.45938E+01 5.00000E+00
 -1      1451 1.80000E+01 4.79062E+01 5.00000E+00
 -1      1452 2.40000E+01 2.38750E+01 5.00000E+00
 -1      1453 2.10000E+01 2.32188E+01 5.00000E+00
 -1      1454 2.40000E+01 2.76250E+01 5.00000E+00
 -1      1455 2.10000E+01 2.71875E+01 5.00000E+00
 -1      1456 2.40000E+01 3.13750E+01 5.00000E+00
 -1      1457 2.10000E+01 3.11562E+01 5.00000E+00
 -1      1458 2.40000E+01 3.51250E+01 5.00000E+00
 -1      1459 2.10000E+01 3.51250E+01 5.00000E+00
 -1      1460 2.40000E+01 3.88750E+01 5.00000E+00
 -1      1461 2.10000E+01 3.90938E+01 5.00000E+00
 -1      1462 2.40000E+01 4.26250E+01 5.00000E+00
 -1      1463 2.10000E+01 4.30625E+01 5.00000E+00
 -1      1464 2.40000E+01 4.63750E+01 5.00000E+00
 -1      1465 2.10000E+01 4.70312E+01 5.00000E+00
 -1      1466 2.40000E+01 5.01250E+01 5.00000E+00
 -1      1467 3.00000E+01 2.91562E+01 5.00000E+00
 -1      1468 2.70000E+01 2.82812E+01 5.00000E+00
 -1      1469 3.00000E+01 3.24688E+01 5.00000E+00
 -1      1470 2.70000E+01 3.18125E+01 5.00000E+00
 -1      1471 3.00000E+01 3.57812E+01 5.00000E+00
 -1      1472 2.70000E+01 3.53438E+01 5.00000E+00
 -1      1473 3.00000E+01 3.90938E+01 5.00000E+00
 -1      1474 2.70000E+01 3.88750E+01 5.00000E+00
 -1      1475 3.00000E+01 4.24062E+01 5.00000E+00
 -1      1476 2.70000E+01 4.24062E+01 5.00000E+00
 -1      1477 3.00000E+01 4.57188E+01 5.00000E+00
 -1      1478 2.70000E+01 4.59375E+01 5.00000E+00
 -1      1479 3.00000E+01 4.90312E+01 5.00000E+00
 -1      1480 2.70000E+01 4.94688E+01 5.00000E+00
 -1      1481 3.00000E+01 5.23438E+01 5.00000E+00
 -1      1482 3.60000E+01 3.44375E+01 5.00000E+00
 -1      1483 3.30000E+01 3.33438E+01 5.00000E+00
 -1      1484 3.60000E+01 3.73125E+01 5.00000E+00
 -1      1485 3.30000E+01 3.64375E+01 5.00000E+00
 -1      1486 3.60000E+01 4.01875E+01 5.00000E+00
 -1      1487 3.30000E+01 3.95312E+01 5.00000E+00
 -1      1488 3.60000E+01 4.30625E+01 5.00000E+00
 -1      1489 3.30000E+01 4.26250E+01 5.00000E+00
 -1      1490 3.60000E+01 4.59375E+01 5.00000E+00
 -1      1491 3.30000E+01 4.57188E+01 5.00000E+00
 -1      1492 3.60000E+01 4.88125E+01 5.00000E+00
 -1      1493 3.30000E+01 4.88125E+01 5.00000E+00
 -1      1494 3.60000E+01 5.16875E+01 5.00000E+00
 -1      1495 3.30000E+01 5.19062E+01 5.00000E+00
 -1      1496 3.60000E+01 5.45625E+01 5.00000E+00
 -1      1497 4.20000E+01 3.97188E+01 5.00000E+00
 -1      1498 3.90000E+01 3.84062E+01 5.00000E+00
 -1      1499 4.20000E+01 4.21562E+01 5.00000E+00
 -1      1500 3.90000E+01 4.10625E+01 5.00000E+00
 -1      1501 4.20000E+01 4.45938E+01 5.00000E+00
 -1      1502 3.90000E+01 4.37188E+01 5.00000E+00
 -1      1503 4.20000E+01 4.70312E+01 5.00000E+00
 -1      1504 3.90000E+01 4.63750E+01 5.00000E+00
 -1      1505 4.20000E+01 4.94688E+01 5.00000E+00
 -1      1506 3.90000E+01 4.90312E+01 5.00000E+00
 -1      1507 4.20000E+01 5.19062E+01 5.00000E+00
 -1      1508 3.90000E+01 5.16875E+01 5.00000E+00
 -1      1509 4.20000E+01 5.43438E+01 5.00000E+00
 -1      1510 3.90000E+01 5.43438E+01 5.00000E+00
 -1      1511 4.20000E+01 5.67812E+01 5.00000E+00
 -1      1512 4.50000E+01 4.34688E+01 5.00000E+00
 -1      1513 4.50000E+01 4.56875E+01 5.00000E+00
 -1      1514 4.50000E+01 4.79062E+01 5.00000E+00
 -1      1515 4.50000E+01 5.01250E+01 5.00000E+00
 -1      1516 4.50000E+01 5.23438E+01 5.00000E+00
 -1      1517 4.50000E+01 5.45625E+01 5.00000E+00
 -1      1518 4.50000E+01 5.67812E+01 5.00000E+00
 -1      1519 4.20000E+01 4.09375E+01 2.50000E+00
 -1      1520 4.20000E+01 4.33750E+01 2.50000E+00
 -1      1521 4.20000E+01 4.58125E+01 2.50000E+00
 -1      1522 4.20000E+01 4.82500E+01 2.50000E+00
 -1      1523 4.20000E+01 5.06875E+01 2.50000E+00
 -1      1524 4.20000E+01 5.31250E+01 2.50000E+00
 -1      1525 4.20000E+01 5.55625E+01 2.50000E+00
 -1      1526 3.60000E+01 3.58750E+01 2.50000E+00
 -1      1527 3.60000E+01 3.87500E+01 2.50000E+00
 -1      1528 3.60000E+01 4.16250E+01 2.50000E+00
 -1      1529 3.60000E+01 4.45000E+01 2.50000E+00
 -1      1530 3.60000E+01 4.73750E+01 2.50000E+00
 -1      1531 3.60000E+01 5.02500E+01 2.50000E+00
 -1      1532 3.60000E+01 5.31250E+01 2.50000E+00
 -1      1533 3.00000E+01 3.08125E+01 2.50000E+00
 -1      1534 3.00000E+01 3.41250E+01 2.50000E+00
 -1      1535 3.00000E+01 3.74375E+01 2.50000E+00
 -1      1536 3.00000E+01 4.07500E+01 2.50000E+00
 -1      1537 3.00000E+01 4.40625E+01 2.50000E+00
 -1      1538 3.00000E+01 4.73750E+01 2.50000E+00
 -1      1539 3.00000E+01 5.06875E+01 2.50000E+00
 -1      1540 2.40000E+01 2.57500E+01 2.50000E+00
 -1      1541 2.40000E+01 2.95000E+01 2.50000E+00
 -1      1542 2.40000E+01 3.32500E+01 2.50000E+00
 -1      1543 2.40000E+01 3.70000E+01 2.50000E+00
 -1      1544 2.40000E+01 4.07500E+01 2.50000E+00
 -1      1545 2.40000E+01 4.45000E+01 2.50000E+00
 -1      1546 2.40000E+01 4.82500E+01 2.50000E+00
 -1      1547 1.80000E+01 2.06875E+01 2.50000E+00
 -1      1548 1.80000E+01 2.48750E+01 2.50000E+00
 -1      1549 1.80000E+01 2.90625E+01 2.50000E+00
 -1      1550 1.80000E+01 3.32500E+01 2.50000E+00
 -1      1551 1.80000E+01 3.74375E+01 2.50000E+00
 -1      1552 1.80000E+01 4.16250E+01 2.50000E+00
 -1      1553 1.80000E+01 4.58125E+01 2.50000E+00
 -1      1554 1.20000E+01 1.56250E+01 2.50000E+00
 -1      1555 1.20000E+01 2.02500E+01 2.50000E+00
 -1      1556 1.20000E+01 2.48750E+01 2.50000E+00
 -1      1557 1.20000E+01 2.95000E+01 2.50000E+00
 -1      1558 1.20000E+01 3.41250E+01 2.50000E+00
 -1      1559 1.20000E+01 3.87500E+01 2.50000E+00
 -1      1560 1.20000E+01 4.33750E+01 2.50000E+00
 -1      1561 6.00000E+00 1.05625E+01 2.50000E+00
 -1      1562 6.00000E+00 1.56250E+01 2.50000E+00
 -1      1563 6.00000E+00 2.06875E+01 2.50000E+00
 -1      1564 6.00000E+00 2.57500E+01 2.50000E+00
 -1      1565 6.00000E+00 3.08125E+01 2.50000E+00
 -1      1566 6.00000E+00 3.58750E+01 2.50000E+00
 -1      1567 6.00000E+00 4.09375E+01 2.50000E+00
 -3
    3C                            64                                     1
 -1      1087    4    0    1
 -2      1038      1037      1045      1052      1072      1065      1101      1192      1199      1201
 -2      1267      1209      1233      1225      1295      1497      1280      1296      1519      1512
 -1      1088    4    0    1
 -2      1072      1065      1101      1192      1071      1064      1102      1193      1280      1296
 -2      1519      1512      1232      1224      1297      1499      1279      1298      1520      1513
 -1      1089    4    0    1
 -2      1071      1064      1102      1193      1070      1063      1103      1194      1279      1298
 -2      1520      1513      1231      1223      1299      1501      1278      1300      1521      1514
 -1      1090    4    0    1
 -2      1070      1063      1103      1194      1069      1062      1104      1195      1278      1300
 -2      1521      1514      1230      1222      1301      1503      1277      1302      1522      1515
 -1      1091    4    0    1
 -2      1069      1062      1104      1195      1068      1061      1105      1196      1277      1302
 -2      1522      1515      1229      1221      1303      1505      1276      1304      1523      1516
 -1      1092    4    0    1
 -2      1068      1061      1105      1196      1067      1060      1106      1197      1276      1304
 -2      1523      1516      1228      1220      1305      1507      1275      1306      1524      1517
 -1      1093    4    0    1
 -2      1067      1060      1106      1197      1066      1059      1107      1198      1275      1306
 -2      1524      1517      1227      1219      1307      1509      1274      1308      1525      1518
 -1      1094    4    0    1
 -2      1066      1059      1107      1198      1042      1041      1079      1086      1274      1308
 -2      1525      1518      1226      1218      1309      1511      1217      1242      1287      1250
 -1      1095    4    0    1
 -2      1052      1045      1046      1053      1192      1101      1108      1185      1267      1202
 -2      1268      1210      1497      1295      1310      1482      1519      1311      1526      1498
 -1      1096    4    0    1
 -2      1192      1101      1108      1185      1193      1102      1109      1186      1519      1311
 -2      1526      1498      1499      1297      1312      1484      1520      1313      1527      1500
 -1      1097    4    0    1