
 displacements (vx,vy,vz) for set VERTEX and time  0.1000000E+01

      1042 -1.849978E+01  2.603187E+01  0.000000E+00
