    1C
    1UUSER                                                              
    1UDATE              15.may.2021                                     
    1UTIME              14:51:16                                        
    1UHOST                                                              
    1UPGM               CalculiX                                        
    1UVERSION           Version 2.17                             
    1UCOMPILETIME       Thu Jul 23 21:43:50 CEST 2020                    
    1UDIR                                                               
    1UDBN                                                               
    1UMAT    1STEEL                                                     
    1UMAT    2CONTACT                                                   
    2C                           427                                     1
 -1         1 0.00000E+00 0.00000E+00 0.00000E+00
 -1         2 1.00000E+01 1.00000E+01 0.00000E+00
 -1         3 4.99792E-01 1.24974E-02 0.00000E+00
 -1         4 1.04212E+00 5.44489E-02 0.00000E+00
 -1         5 1.63835E+00 1.35122E-01 0.00000E+00
 -1         6 2.28673E+00 2.64967E-01 0.00000E+00
 -1         7 2.98765E+00 4.56732E-01 0.00000E+00
 -1         8 3.73954E+00 7.25528E-01 0.00000E+00
 -1         9 4.53803E+00 1.08898E+00 0.00000E+00
 -1        10 5.37479E+00 1.56723E+00 0.00000E+00
 -1        11 6.23615E+00 2.18268E+00 0.00000E+00
 -1        12 7.10134E+00 2.95934E+00 0.00000E+00
 -1        13 7.94049E+00 3.92146E+00 0.00000E+00
 -1        14 8.71235E+00 5.09134E+00 0.00000E+00
 -1        15 9.36216E+00 6.48575E+00 0.00000E+00
 -1        16 9.82028E+00 8.11264E+00 0.00000E+00
 -1        17 9.50000E+00 1.00000E+01 0.00000E+00
 -1        18 8.95000E+00 1.00000E+01 0.00000E+00
 -1        19 8.34500E+00 1.00000E+01 0.00000E+00
 -1        20 7.67950E+00 1.00000E+01 0.00000E+00
 -1        21 6.94745E+00 1.00000E+01 0.00000E+00
 -1        22 6.14220E+00 1.00000E+01 0.00000E+00
 -1        23 5.25641E+00 1.00000E+01 0.00000E+00
 -1        24 4.28206E+00 1.00000E+01 0.00000E+00
 -1        25 3.21026E+00 1.00000E+01 0.00000E+00
 -1        26 2.03129E+00 1.00000E+01 0.00000E+00
 -1        27 7.34416E-01 1.00000E+01 0.00000E+00
 -1        28 0.00000E+00 1.00000E+01 0.00000E+00
 -1        29 0.00000E+00 5.00000E-01 0.00000E+00
 -1        30 0.00000E+00 1.05000E+00 0.00000E+00
 -1        31 0.00000E+00 1.65500E+00 0.00000E+00
 -1        32 0.00000E+00 2.32050E+00 0.00000E+00
 -1        33 0.00000E+00 3.05255E+00 0.00000E+00
 -1        34 0.00000E+00 3.85781E+00 0.00000E+00
 -1        35 0.00000E+00 4.74359E+00 0.00000E+00
 -1        36 0.00000E+00 5.71794E+00 0.00000E+00
 -1        37 0.00000E+00 6.78974E+00 0.00000E+00
 -1        38 0.00000E+00 7.96871E+00 0.00000E+00
 -1        39 0.00000E+00 9.26558E+00 0.00000E+00
 -1        40 4.74802E-01 5.11873E-01 0.00000E+00
 -1        41 4.47314E-01 1.06119E+00 0.00000E+00
 -1        42 4.17076E-01 1.66543E+00 0.00000E+00
 -1        43 3.83815E-01 2.33010E+00 0.00000E+00
 -1        44 3.47228E-01 3.06123E+00 0.00000E+00
 -1        45 3.06982E-01 3.86548E+00 0.00000E+00
 -1        46 2.62711E-01 4.75015E+00 0.00000E+00
 -1        47 2.14014E-01 5.72330E+00 0.00000E+00
 -1        48 1.60446E-01 6.79375E+00 0.00000E+00
 -1        49 1.01522E-01 7.97125E+00 0.00000E+00
 -1        50 3.67055E-02 9.26650E+00 0.00000E+00
 -1        51 9.90013E-01 5.51726E-01 0.00000E+00
 -1        52 9.32697E-01 1.09873E+00 0.00000E+00
 -1        53 8.69649E-01 1.70044E+00 0.00000E+00
 -1        54 8.00296E-01 2.36231E+00 0.00000E+00
 -1        55 7.24007E-01 3.09038E+00 0.00000E+00
 -1        56 6.40090E-01 3.89125E+00 0.00000E+00
 -1        57 5.47781E-01 4.77221E+00 0.00000E+00
 -1        58 4.46241E-01 5.74126E+00 0.00000E+00
 -1        59 3.34548E-01 6.80722E+00 0.00000E+00
 -1        60 2.11684E-01 7.97977E+00 0.00000E+00
 -1        61 7.65350E-02 9.26958E+00 0.00000E+00
 -1        62 1.55643E+00 6.28366E-01 0.00000E+00
 -1        63 1.46632E+00 1.17093E+00 0.00000E+00
 -1        64 1.36720E+00 1.76776E+00 0.00000E+00
 -1        65 1.25817E+00 2.42427E+00 0.00000E+00
 -1        66 1.13824E+00 3.14643E+00 0.00000E+00
 -1        67 1.00631E+00 3.94080E+00 0.00000E+00
 -1        68 8.61185E-01 4.81461E+00 0.00000E+00
 -1        69 7.01551E-01 5.77580E+00 0.00000E+00
 -1        70 5.25953E-01 6.83312E+00 0.00000E+00
 -1        71 3.32796E-01 7.99616E+00 0.00000E+00
 -1        72 1.20323E-01 9.27551E+00 0.00000E+00
 -1        73 2.17239E+00 7.51719E-01 0.00000E+00
 -1        74 2.04662E+00 1.28715E+00 0.00000E+00
 -1        75 1.90828E+00 1.87611E+00 0.00000E+00
 -1        76 1.75609E+00 2.52398E+00 0.00000E+00
 -1        77 1.58869E+00 3.23663E+00 0.00000E+00
 -1        78 1.40455E+00 4.02055E+00 0.00000E+00
 -1        79 1.20200E+00 4.88286E+00 0.00000E+00
 -1        80 9.79190E-01 5.83140E+00 0.00000E+00
 -1        81 7.34100E-01 6.87480E+00 0.00000E+00
 -1        82 4.64501E-01 8.02253E+00 0.00000E+00
 -1        83 1.67941E-01 9.28504E+00 0.00000E+00
 -1        84 2.83827E+00 9.33896E-01 0.00000E+00
 -1        85 2.67395E+00 1.45878E+00 0.00000E+00
 -1        86 2.49319E+00 2.03614E+00 0.00000E+00
 -1        87 2.29436E+00 2.67125E+00 0.00000E+00
 -1        88 2.07565E+00 3.36986E+00 0.00000E+00
 -1        89 1.83507E+00 4.13834E+00 0.00000E+00
 -1        90 1.57043E+00 4.98366E+00 0.00000E+00
 -1        91 1.27933E+00 5.91352E+00 0.00000E+00
 -1        92 9.59113E-01 6.93636E+00 0.00000E+00
 -1        93 6.06877E-01 8.06149E+00 0.00000E+00
 -1        94 2.19418E-01 9.29913E+00 0.00000E+00
 -1        95 3.55257E+00 1.18925E+00 0.00000E+00
 -1        96 3.34689E+00 1.69935E+00 0.00000E+00
 -1        97 3.12065E+00 2.26045E+00 0.00000E+00
 -1        98 2.87178E+00 2.87767E+00 0.00000E+00
 -1        99 2.59803E+00 3.55661E+00 0.00000E+00
 -1       100 2.29690E+00 4.30344E+00 0.00000E+00
 -1       101 1.96566E+00 5.12495E+00 0.00000E+00
 -1       102 1.60129E+00 6.02862E+00 0.00000E+00
 -1       103 1.20049E+00 7.02265E+00 0.00000E+00
 -1       104 7.59609E-01 8.11609E+00 0.00000E+00
 -1       105 2.74638E-01 9.31887E+00 0.00000E+00
 -1       106 4.31113E+00 1.53453E+00 0.00000E+00
 -1       107 4.06154E+00 2.02464E+00 0.00000E+00
 -1       108 3.78699E+00 2.56375E+00 0.00000E+00
 -1       109 3.48498E+00 3.15678E+00 0.00000E+00
 -1       110 3.15277E+00 3.80911E+00 0.00000E+00
 -1       111 2.78735E+00 4.52668E+00 0.00000E+00
 -1       112 2.38538E+00 5.31600E+00 0.00000E+00
 -1       113 1.94321E+00 6.18425E+00 0.00000E+00
 -1       114 1.45683E+00 7.13933E+00 0.00000E+00
 -1       115 9.21804E-01 8.18992E+00 0.00000E+00
 -1       116 3.33280E-01 9.34556E+00 0.00000E+00
 -1       117 5.10605E+00 1.98887E+00 0.00000E+00
 -1       118 4.81044E+00 2.45267E+00 0.00000E+00
 -1       119 4.48526E+00 2.96285E+00 0.00000E+00
 -1       120 4.12757E+00 3.52405E+00 0.00000E+00
 -1       121 3.73411E+00 4.14137E+00 0.00000E+00
 -1       122 3.30130E+00 4.82043E+00 0.00000E+00
 -1       123 2.82521E+00 5.56739E+00 0.00000E+00
 -1       124 2.30151E+00 6.38904E+00 0.00000E+00
 -1       125 1.72545E+00 7.29286E+00 0.00000E+00
 -1       126 1.09177E+00 8.28706E+00 0.00000E+00
 -1       127 3.94733E-01 9.38068E+00 0.00000E+00
 -1       128 5.92434E+00 2.57355E+00 0.00000E+00
 -1       129 5.58135E+00 3.00350E+00 0.00000E+00
 -1       130 5.20406E+00 3.47645E+00 0.00000E+00
 -1       131 4.78905E+00 3.99669E+00 0.00000E+00
 -1       132 4.33253E+00 4.56896E+00 0.00000E+00
 -1       133 3.83036E+00 5.19845E+00 0.00000E+00
 -1       134 3.27798E+00 5.89089E+00 0.00000E+00
 -1       135 2.67035E+00 6.65258E+00 0.00000E+00
 -1       136 2.00197E+00 7.49044E+00 0.00000E+00
 -1       137 1.26674E+00 8.41208E+00 0.00000E+00
 -1       138 4.57993E-01 9.42588E+00 0.00000E+00
 -1       139 6.74627E+00 3.31137E+00 0.00000E+00
 -1       140 6.35570E+00 3.69861E+00 0.00000E+00
 -1       141 5.92607E+00 4.12457E+00 0.00000E+00
 -1       142 5.45347E+00 4.59312E+00 0.00000E+00
 -1       143 4.93362E+00 5.10853E+00 0.00000E+00
 -1       144 4.36178E+00 5.67549E+00 0.00000E+00
 -1       145 3.73276E+00 6.29914E+00 0.00000E+00
 -1       146 3.04083E+00 6.98515E+00 0.00000E+00
 -1       147 2.27972E+00 7.73976E+00 0.00000E+00
 -1       148 1.44249E+00 8.56984E+00 0.00000E+00
 -1       149 5.21534E-01 9.48292E+00 0.00000E+00
 -1       150 7.54346E+00 4.22539E+00 0.00000E+00
 -1       151 7.10674E+00 4.55971E+00 0.00000E+00
 -1       152 6.62634E+00 4.92746E+00 0.00000E+00
 -1       153 6.09790E+00 5.33198E+00 0.00000E+00
 -1       154 5.51661E+00 5.77696E+00 0.00000E+00
 -1       155 4.87720E+00 6.26644E+00 0.00000E+00
 -1       156 4.17385E+00 6.80487E+00 0.00000E+00
 -1       157 3.40016E+00 7.39714E+00 0.00000E+00
 -1       158 2.54910E+00 8.04863E+00 0.00000E+00
 -1       159 1.61294E+00 8.76527E+00 0.00000E+00
 -1       160 5.83162E-01 9.55358E+00 0.00000E+00
 -1       161 8.27674E+00 5.33678E+00 0.00000E+00
 -1       162 7.79756E+00 5.60675E+00 0.00000E+00
 -1       163 7.27046E+00 5.90373E+00 0.00000E+00
 -1       164 6.69065E+00 6.23040E+00 0.00000E+00
 -1       165 6.05286E+00 6.58974E+00 0.00000E+00
 -1       166 5.35130E+00 6.98501E+00 0.00000E+00
 -1       167 4.57957E+00 7.41981E+00 0.00000E+00
 -1       168 3.73068E+00 7.89809E+00 0.00000E+00
 -1       169 2.79689E+00 8.42419E+00 0.00000E+00
 -1       170 1.76973E+00 9.00291E+00 0.00000E+00
 -1       171 6.39850E-01 9.63950E+00 0.00000E+00
 -1       172 8.89405E+00 6.66146E+00 0.00000E+00
 -1       173 8.37913E+00 6.85475E+00 0.00000E+00
 -1       174 7.81272E+00 7.06736E+00 0.00000E+00
 -1       175 7.18967E+00 7.30123E+00 0.00000E+00
 -1       176 6.50431E+00 7.55849E+00 0.00000E+00
 -1       177 5.75042E+00 7.84148E+00 0.00000E+00
 -1       178 4.92114E+00 8.15277E+00 0.00000E+00
 -1       179 4.00893E+00 8.49518E+00 0.00000E+00
 -1       180 3.00550E+00 8.87183E+00 0.00000E+00
 -1       181 1.90172E+00 9.28615E+00 0.00000E+00
 -1       182 6.87572E-01 9.74191E+00 0.00000E+00
 -1       183 9.32926E+00 8.20701E+00 0.00000E+00
 -1       184 8.78915E+00 8.31081E+00 0.00000E+00
 -1       185 8.19502E+00 8.42500E+00 0.00000E+00
 -1       186 7.54148E+00 8.55060E+00 0.00000E+00
 -1       187 6.82259E+00 8.68877E+00 0.00000E+00
 -1       188 6.03181E+00 8.84075E+00 0.00000E+00
 -1       189 5.16195E+00 9.00793E+00 0.00000E+00
 -1       190 4.20510E+00 9.19182E+00 0.00000E+00
 -1       191 3.15257E+00 9.39411E+00 0.00000E+00
 -1       192 1.99478E+00 9.61662E+00 0.00000E+00
 -1       193 7.21217E-01 9.86139E+00 0.00000E+00
 -1       194 4.00000E+01 0.00000E+00 0.00000E+00
 -1       195 0.00000E+00 0.00000E+00 0.00000E+00
 -1       196 0.00000E+00-2.00000E+01 0.00000E+00
 -1       197 4.00000E+01-2.00000E+01 0.00000E+00
 -1       199 3.54050E+01 0.00000E+00 0.00000E+00
 -1       200 3.13274E+01 0.00000E+00 0.00000E+00
 -1       201 2.76174E+01 0.00000E+00 0.00000E+00
 -1       202 2.42365E+01 0.00000E+00 0.00000E+00
 -1       203 2.11562E+01 0.00000E+00 0.00000E+00
 -1       204 1.83504E+01 0.00000E+00 0.00000E+00
 -1       205 1.57950E+01 0.00000E+00 0.00000E+00
 -1       206 1.34681E+01 0.00000E+00 0.00000E+00
 -1       207 1.13496E+01 0.00000E+00 0.00000E+00
 -1       208 9.42113E+00 0.00000E+00 0.00000E+00
 -1       209 7.66580E+00 0.00000E+00 0.00000E+00
 -1       210 6.06827E+00 0.00000E+00 0.00000E+00
 -1       211 4.61451E+00 0.00000E+00 0.00000E+00
 -1       212 3.29169E+00 0.00000E+00 0.00000E+00
 -1       213 2.08813E+00 0.00000E+00 0.00000E+00
 -1       214 1.00000E+00 0.00000E+00 0.00000E+00
 -1       215 0.00000E+00-1.00000E+00 0.00000E+00
 -1       216 0.00000E+00-2.10000E+00 0.00000E+00
 -1       217 0.00000E+00-3.31000E+00 0.00000E+00
 -1       218 0.00000E+00-4.64100E+00 0.00000E+00
 -1       219 0.00000E+00-6.10510E+00 0.00000E+00
 -1       220 0.00000E+00-7.71561E+00 0.00000E+00
 -1       221 0.00000E+00-9.48717E+00 0.00000E+00
 -1       222 0.00000E+00-1.14359E+01 0.00000E+00
 -1       223 0.00000E+00-1.35795E+01 0.00000E+00
 -1       224 0.00000E+00-1.59374E+01 0.00000E+00
 -1       225 0.00000E+00-1.85312E+01 0.00000E+00
 -1       226 1.00000E+00-2.00000E+01 0.00000E+00
 -1       227 2.08813E+00-2.00000E+01 0.00000E+00
 -1       228 3.29169E+00-2.00000E+01 0.00000E+00
 -1       229 4.61451E+00-2.00000E+01 0.00000E+00
 -1       230 6.06827E+00-2.00000E+01 0.00000E+00
 -1       231 7.66580E+00-2.00000E+01 0.00000E+00
 -1       232 9.42113E+00-2.00000E+01 0.00000E+00
 -1       233 1.13496E+01-2.00000E+01 0.00000E+00
 -1       234 1.34681E+01-2.00000E+01 0.00000E+00
 -1       235 1.57950E+01-2.00000E+01 0.00000E+00
 -1       236 1.83504E+01-2.00000E+01 0.00000E+00
 -1       237 2.11562E+01-2.00000E+01 0.00000E+00
 -1       238 2.42365E+01-2.00000E+01 0.00000E+00
 -1       239 2.76174E+01-2.00000E+01 0.00000E+00
 -1       240 3.13274E+01-2.00000E+01 0.00000E+00
 -1       241 3.54050E+01-2.00000E+01 0.00000E+00
 -1       242 4.00000E+01-1.85312E+01 0.00000E+00
 -1       243 4.00000E+01-1.59374E+01 0.00000E+00
 -1       244 4.00000E+01-1.35795E+01 0.00000E+00
 -1       245 4.00000E+01-1.14359E+01 0.00000E+00
 -1       246 4.00000E+01-9.48717E+00 0.00000E+00
 -1       247 4.00000E+01-7.71561E+00 0.00000E+00
 -1       248 4.00000E+01-6.10510E+00 0.00000E+00
 -1       249 4.00000E+01-4.64100E+00 0.00000E+00
 -1       250 4.00000E+01-3.31000E+00 0.00000E+00
 -1       251 4.00000E+01-2.10000E+00 0.00000E+00
 -1       252 4.00000E+01-1.00000E+00 0.00000E+00
 -1       253 3.54050E+01-1.00000E+00 0.00000E+00
 -1       254 3.54050E+01-2.10000E+00 0.00000E+00
 -1       255 3.54050E+01-3.31000E+00 0.00000E+00
 -1       256 3.54050E+01-4.64100E+00 0.00000E+00
 -1       257 3.54050E+01-6.10510E+00 0.00000E+00
 -1       258 3.54050E+01-7.71561E+00 0.00000E+00
 -1       259 3.54050E+01-9.48717E+00 0.00000E+00
 -1       260 3.54050E+01-1.14359E+01 0.00000E+00
 -1       261 3.54050E+01-1.35795E+01 0.00000E+00
 -1       262 3.54050E+01-1.59374E+01 0.00000E+00
 -1       263 3.54050E+01-1.85312E+01 0.00000E+00
 -1       264 3.13274E+01-1.00000E+00 0.00000E+00
 -1       265 3.13274E+01-2.10000E+00 0.00000E+00
 -1       266 3.13274E+01-3.31000E+00 0.00000E+00
 -1       267 3.13274E+01-4.64100E+00 0.00000E+00
 -1       268 3.13274E+01-6.10510E+00 0.00000E+00
 -1       269 3.13274E+01-7.71561E+00 0.00000E+00
 -1       270 3.13274E+01-9.48717E+00 0.00000E+00
 -1       271 3.13274E+01-1.14359E+01 0.00000E+00
 -1       272 3.13274E+01-1.35795E+01 0.00000E+00
 -1       273 3.13274E+01-1.59374E+01 0.00000E+00
 -1       274 3.13274E+01-1.85312E+01 0.00000E+00
 -1       275 2.76174E+01-1.00000E+00 0.00000E+00
 -1       276 2.76174E+01-2.10000E+00 0.00000E+00
 -1       277 2.76174E+01-3.31000E+00 0.00000E+00
 -1       278 2.76174E+01-4.64100E+00 0.00000E+00
 -1       279 2.76174E+01-6.10510E+00 0.00000E+00
 -1       280 2.76174E+01-7.71561E+00 0.00000E+00
 -1       281 2.76174E+01-9.48717E+00 0.00000E+00
 -1       282 2.76174E+01-1.14359E+01 0.00000E+00
 -1       283 2.76174E+01-1.35795E+01 0.00000E+00
 -1       284 2.76174E+01-1.59374E+01 0.00000E+00
 -1       285 2.76174E+01-1.85312E+01 0.00000E+00
 -1       286 2.42365E+01-1.00000E+00 0.00000E+00
 -1       287 2.42365E+01-2.10000E+00 0.00000E+00
 -1       288 2.42365E+01-3.31000E+00 0.00000E+00
 -1       289 2.42365E+01-4.64100E+00 0.00000E+00
 -1       290 2.42365E+01-6.10510E+00 0.00000E+00
 -1       291 2.42365E+01-7.71561E+00 0.00000E+00
 -1       292 2.42365E+01-9.48717E+00 0.00000E+00
 -1       293 2.42365E+01-1.14359E+01 0.00000E+00
 -1       294 2.42365E+01-1.35795E+01 0.00000E+00
 -1       295 2.42365E+01-1.59374E+01 0.00000E+00
 -1       296 2.42365E+01-1.85312E+01 0.00000E+00
 -1       297 2.11562E+01-1.00000E+00 0.00000E+00
 -1       298 2.11562E+01-2.10000E+00 0.00000E+00
 -1       299 2.11562E+01-3.31000E+00 0.00000E+00
 -1       300 2.11562E+01-4.64100E+00 0.00000E+00
 -1       301 2.11562E+01-6.10510E+00 0.00000E+00
 -1       302 2.11562E+01-7.71561E+00 0.00000E+00
 -1       303 2.11562E+01-9.48717E+00 0.00000E+00
 -1       304 2.11562E+01-1.14359E+01 0.00000E+00
 -1       305 2.11562E+01-1.35795E+01 0.00000E+00
 -1       306 2.11562E+01-1.59374E+01 0.00000E+00
 -1       307 2.11562E+01-1.85312E+01 0.00000E+00
 -1       308 1.83504E+01-1.00000E+00 0.00000E+00
 -1       309 1.83504E+01-2.10000E+00 0.00000E+00
 -1       310 1.83504E+01-3.31000E+00 0.00000E+00
 -1       311 1.83504E+01-4.64100E+00 0.00000E+00
 -1       312 1.83504E+01-6.10510E+00 0.00000E+00
 -1       313 1.83504E+01-7.71561E+00 0.00000E+00
 -1       314 1.83504E+01-9.48717E+00 0.00000E+00
 -1       315 1.83504E+01-1.14359E+01 0.00000E+00
 -1       316 1.83504E+01-1.35795E+01 0.00000E+00
 -1       317 1.83504E+01-1.59374E+01 0.00000E+00
 -1       318 1.83504E+01-1.85312E+01 0.00000E+00
 -1       319 1.57950E+01-1.00000E+00 0.00000E+00
 -1       320 1.57950E+01-2.10000E+00 0.00000E+00
 -1       321 1.57950E+01-3.31000E+00 0.00000E+00
 -1       322 1.57950E+01-4.64100E+00 0.00000E+00
 -1       323 1.57950E+01-6.10510E+00 0.00000E+00
 -1       324 1.57950E+01-7.71561E+00 0.00000E+00
 -1       325 1.57950E+01-9.48717E+00 0.00000E+00
 -1       326 1.57950E+01-1.14359E+01 0.00000E+00
 -1       327 1.57950E+01-1.35795E+01 0.00000E+00
 -1       328 1.57950E+01-1.59374E+01 0.00000E+00
 -1       329 1.57950E+01-1.85312E+01 0.00000E+00
 -1       330 1.34681E+01-1.00000E+00 0.00000E+00
 -1       331 1.34681E+01-2.10000E+00 0.00000E+00
 -1       332 1.34681E+01-3.31000E+00 0.00000E+00
 -1       333 1.34681E+01-4.64100E+00 0.00000E+00
 -1       334 1.34681E+01-6.10510E+00 0.00000E+00
 -1       335 1.34681E+01-7.71561E+00 0.00000E+00
 -1       336 1.34681E+01-9.48717E+00 0.00000E+00
 -1       337 1.34681E+01-1.14359E+01 0.00000E+00
 -1       338 1.34681E+01-1.35795E+01 0.00000E+00
 -1       339 1.34681E+01-1.59374E+01 0.00000E+00
 -1       340 1.34681E+01-1.85312E+01 0.00000E+00
 -1       341 1.13496E+01-1.00000E+00 0.00000E+00
 -1       342 1.13496E+01-2.10000E+00 0.00000E+00
 -1       343 1.13496E+01-3.31000E+00 0.00000E+00
 -1       344 1.13496E+01-4.64100E+00 0.00000E+00
 -1       345 1.13496E+01-6.10510E+00 0.00000E+00
 -1       346 1.13496E+01-7.71561E+00 0.00000E+00
 -1       347 1.13496E+01-9.48717E+00 0.00000E+00
 -1       348 1.13496E+01-1.14359E+01 0.00000E+00
 -1       349 1.13496E+01-1.35795E+01 0.00000E+00
 -1       350 1.13496E+01-1.59374E+01 0.00000E+00
 -1       351 1.13496E+01-1.85312E+01 0.00000E+00
 -1       352 9.42113E+00-1.00000E+00 0.00000E+00
 -1       353 9.42113E+00-2.10000E+00 0.00000E+00
 -1       354 9.42113E+00-3.31000E+00 0.00000E+00
 -1       355 9.42113E+00-4.64100E+00 0.00000E+00
 -1       356 9.42113E+00-6.10510E+00 0.00000E+00
 -1       357 9.42113E+00-7.71561E+00 0.00000E+00
 -1       358 9.42113E+00-9.48717E+00 0.00000E+00
 -1       359 9.42113E+00-1.14359E+01 0.00000E+00
 -1       360 9.42113E+00-1.35795E+01 0.00000E+00
 -1       361 9.42113E+00-1.59374E+01 0.00000E+00
 -1       362 9.42113E+00-1.85312E+01 0.00000E+00
 -1       363 7.66580E+00-1.00000E+00 0.00000E+00
 -1       364 7.66580E+00-2.10000E+00 0.00000E+00
 -1       365 7.66580E+00-3.31000E+00 0.00000E+00
 -1       366 7.66580E+00-4.64100E+00 0.00000E+00
 -1       367 7.66580E+00-6.10510E+00 0.00000E+00
 -1       368 7.66580E+00-7.71561E+00 0.00000E+00
 -1       369 7.66580E+00-9.48717E+00 0.00000E+00
 -1       370 7.66580E+00-1.14359E+01 0.00000E+00
 -1       371 7.66580E+00-1.35795E+01 0.00000E+00
 -1       372 7.66580E+00-1.59374E+01 0.00000E+00
 -1       373 7.66580E+00-1.85312E+01 0.00000E+00
 -1       374 6.06827E+00-1.00000E+00 0.00000E+00
 -1       375 6.06827E+00-2.10000E+00 0.00000E+00
 -1       376 6.06827E+00-3.31000E+00 0.00000E+00
 -1       377 6.06827E+00-4.64100E+00 0.00000E+00
 -1       378 6.06827E+00-6.10510E+00 0.00000E+00
 -1       379 6.06827E+00-7.71561E+00 0.00000E+00
 -1       380 6.06827E+00-9.48717E+00 0.00000E+00
 -1       381 6.06827E+00-1.14359E+01 0.00000E+00
 -1       382 6.06827E+00-1.35795E+01 0.00000E+00
 -1       383 6.06827E+00-1.59374E+01 0.00000E+00
 -1       384 6.06827E+00-1.85312E+01 0.00000E+00
 -1       385 4.61451E+00-1.00000E+00 0.00000E+00
 -1       386 4.61451E+00-2.10000E+00 0.00000E+00
 -1       387 4.61451E+00-3.31000E+00 0.00000E+00
 -1       388 4.61451E+00-4.64100E+00 0.00000E+00
 -1       389 4.61451E+00-6.10510E+00 0.00000E+00
 -1       390 4.61451E+00-7.71561E+00 0.00000E+00
 -1       391 4.61451E+00-9.48717E+00 0.00000E+00
 -1       392 4.61451E+00-1.14359E+01 0.00000E+00
 -1       393 4.61451E+00-1.35795E+01 0.00000E+00
 -1       394 4.61451E+00-1.59374E+01 0.00000E+00
 -1       395 4.61451E+00-1.85312E+01 0.00000E+00
 -1       396 3.29169E+00-1.00000E+00 0.00000E+00
 -1       397 3.29169E+00-2.10000E+00 0.00000E+00
 -1       398 3.29169E+00-3.31000E+00 0.00000E+00
 -1       399 3.29169E+00-4.64100E+00 0.00000E+00
 -1       400 3.29169E+00-6.10510E+00 0.00000E+00
 -1       401 3.29169E+00-7.71561E+00 0.00000E+00
 -1       402 3.29169E+00-9.48717E+00 0.00000E+00
 -1       403 3.29169E+00-1.14359E+01 0.00000E+00
 -1       404 3.29169E+00-1.35795E+01 0.00000E+00
 -1       405 3.29169E+00-1.59374E+01 0.00000E+00
 -1       406 3.29169E+00-1.85312E+01 0.00000E+00
 -1       407 2.08813E+00-1.00000E+00 0.00000E+00
 -1       408 2.08813E+00-2.10000E+00 0.00000E+00
 -1       409 2.08813E+00-3.31000E+00 0.00000E+00
 -1       410 2.08813E+00-4.64100E+00 0.00000E+00
 -1       411 2.08813E+00-6.10510E+00 0.00000E+00
 -1       412 2.08813E+00-7.71561E+00 0.00000E+00
 -1       413 2.08813E+00-9.48717E+00 0.00000E+00
 -1       414 2.08813E+00-1.14359E+01 0.00000E+00
 -1       415 2.08813E+00-1.35795E+01 0.00000E+00
 -1       416 2.08813E+00-1.59374E+01 0.00000E+00
 -1       417 2.08813E+00-1.85312E+01 0.00000E+00
 -1       418 1.00000E+00-1.00000E+00 0.00000E+00
 -1       419 1.00000E+00-2.10000E+00 0.00000E+00
 -1       420 1.00000E+00-3.31000E+00 0.00000E+00
 -1       421 1.00000E+00-4.64100E+00 0.00000E+00
 -1       422 1.00000E+00-6.10510E+00 0.00000E+00
 -1       423 1.00000E+00-7.71561E+00 0.00000E+00
 -1       424 1.00000E+00-9.48717E+00 0.00000E+00
 -1       425 1.00000E+00-1.14359E+01 0.00000E+00
 -1       426 1.00000E+00-1.35795E+01 0.00000E+00
 -1       427 1.00000E+00-1.59374E+01 0.00000E+00
 -1       428 1.00000E+00-1.85312E+01 0.00000E+00
 -3
    3C                           384                                     1
 -1         1    9    0    1
 -2         1         3        40        29
 -1         2    9    0    1
 -2        29        40        41        30
 -1         3    9    0    1
 -2        30        41        42        31
 -1         4    9    0    1
 -2        31        42        43        32
 -1         5    9    0    1
 -2        32        43        44        33
 -1         6    9    0    1
 -2        33        44        45        34
 -1         7    9    0    1
 -2        34        45        46        35
 -1         8    9    0    1
 -2        35        46        47        36
 -1         9    9    0    1
 -2        36        47        48        37
 -1        10    9    0    1
 -2        37        48        49        38
 -1        11    9    0    1
 -2        38        49        50        39
 -1        12    7    0    1
 -2        39        50        28
 -1        13    9    0    1
 -2         3         4        51        40
 -1        14    9    0    1
 -2        40        51        52        41
 -1        15    9    0    1
 -2        41        52        53        42
 -1        16    9    0    1
 -2        42        53        54        43
 -1        17    9    0    1
 -2        43        54        55        44
 -1        18    9    0    1
 -2        44        55        56        45
 -1        19    9    0    1
 -2        45        56        57        46
 -1        20    9    0    1
 -2        46        57        58        47
 -1        21    9    0    1
 -2        47        58        59        48
 -1        22    9    0    1
 -2        48        59        60        49
 -1        23    9    0    1
 -2        49        60        61        50
 -1        24    7    0    1
 -2        50        61        28
 -1        25    9    0    1
 -2         4         5        62        51
 -1        26    9    0    1
 -2        51        62        63        52
 -1        27    9    0    1
 -2        52        63        64        53
 -1        28    9    0    1
 -2        53        64        65        54
 -1        29    9    0    1
 -2        54        65        66        55
 -1        30    9    0    1
 -2        55        66        67        56
 -1        31    9    0    1
 -2        56        67        68        57
 -1        32    9    0    1
 -2        57        68        69        58
 -1        33    9    0    1
 -2        58        69        70        59
 -1        34    9    0    1
 -2        59        70        71        60
 -1        35    9    0    1
 -2        60        71        72        61
 -1        36    7    0    1
 -2        61        72        28
 -1        37    9    0    1
 -2         5         6        73        62
 -1        38    9    0    1
 -2        62        73        74        63
 -1        39    9    0    1
 -2        63        74        75        64
 -1        40    9    0    1
 -2        64        75        76        65
 -1        41    9    0    1
 -2        65        76        77        66
 -1        42    9    0    1
 -2        66        77        78        67
 -1        43    9    0    1
 -2        67        78        79        68
 -1        44    9    0    1
 -2        68        79        80        69
 -1        45    9    0    1
 -2        69        80        81        70
 -1        46    9    0    1
 -2        70        81        82        71
 -1        47    9    0    1
 -2        71        82        83        72
 -1        48    7    0    1
 -2        72        83        28
 -1        49    9    0    1
 -2         6         7        84        73
 -1        50    9    0    1
 -2        73        84        85        74
 -1        51    9    0    1
 -2        74        85        86        75
 -1        52    9    0    1
 -2        75        86        87        76
 -1        53    9    0    1
 -2        76        87        88        77
 -1        54    9    0    1
 -2        77        88        89        78
 -1        55    9    0    1
 -2        78        89        90        79
 -1        56    9    0    1
 -2        79        90        91        80
 -1        57    9    0    1
 -2        80        91        92        81
 -1        58    9    0    1
 -2        81        92        93        82
 -1        59    9    0    1
 -2        82        93        94        83
 -1        60    7    0    1
 -2        83        94        28
 -1        61    9    0    1
 -2         7         8        95        84
 -1        62    9    0    1
 -2        84        95        96        85
 -1        63    9    0    1
 -2        85        96        97        86
 -1        64    9    0    1
 -2        86        97        98        87
 -1        65    9    0    1
 -2        87        98        99        88
 -1        66    9    0    1
 -2        88        99       100        89
 -1        67    9    0    1
 -2        89       100       101        90
 -1        68    9    0    1
 -2        90       101       102        91
 -1        69    9    0    1
 -2        91       102       103        92
 -1        70    9    0    1
 -2        92       103       104        93
 -1        71    9    0    1
 -2        93       104       105        94
 -1        72    7    0    1
 -2        94       105        28
 -1        73    9    0    1
 -2         8         9       106        95
 -1        74    9    0    1
 -2        95       106       107        96
 -1        75    9    0    1
 -2        96       107       108        97
 -1        76    9    0    1
 -2        97       108       109        98
 -1        77    9    0    1
 -2        98       109       110        99
 -1        78    9    0    1
 -2        99       110       111       100
 -1        79    9    0    1
 -2       100       111       112       101
 -1        80    9    0    1
 -2       101       112       113       102
 -1        81    9    0    1
 -2       102       113       114       103
 -1        82    9    0    1
 -2       103       114       115       104
 -1        83    9    0    1
 -2       104       115       116       105
 -1        84    7    0    1
 -2       105       116        28
 -1        85    9    0    1
 -2         9        10       117       106
 -1        86    9    0    1
 -2       106       117       118       107
 -1        87    9    0    1
 -2       107       118       119       108
 -1        88    9    0    1
 -2       108       119       120       109
 -1        89    9    0    1
 -2       109       120       121       110
 -1        90    9    0    1
 -2       110       121       122       111
 -1        91    9    0    1
 -2       111       122       123       112
 -1        92    9    0    1
 -2       112       123       124       113
 -1        93    9    0    1
 -2       113       124       125       114
 -1        94    9    0    1
 -2       114       125       126       115
 -1        95    9    0    1
 -2       115       126       127       116
 -1        96    7    0    1
 -2       116       127        28
 -1        97    9    0    1
 -2        10        11       128       117
 -1        98    9    0    1
 -2       117       128       129       118
 -1        99    9    0    1
 -2       118       129       130       119
 -1       100    9    0    1
 -2       119       130       131       120
 -1       101    9    0    1
 -2       120       131       132       121
 -1       102    9    0    1
 -2       121       132       133       122
 -1       103    9    0    1
 -2       122       133       134       123
 -1       104    9    0    1
 -2       123       134       135       124
 -1       105    9    0    1
 -2       124       135       136       125
 -1       106    9    0    1
 -2       125       136       137       126
 -1       107    9    0    1