
 displacements (vx,vy,vz) for set DISP and time  0.1000000E+01

         6 -7.570582E-03  1.323244E-02  1.270383E-01
