
 displacements (vx,vy,vz) for set DISP and time  0.1000000E+01

         6  3.112262E-03  2.993381E-03  3.623664E-02
