
 displacements (vx,vy,vz) for set DISP and time  0.1000000E+01

         6 -6.662737E-03  1.792231E-02  1.257784E-01
