
 displacements (vx,vy,vz) for set DISP and time  0.1000000E+01

         6  3.338272E-03  7.630650E-04  1.715527E-02
