
 displacements (vx,vy,vz) for set DISP and time  0.1000000E+01

         6  2.639902E-03  2.364665E-02  6.773310E-02
