
 displacements (vx,vy,vz) for set DISP and time  0.1000000E+01

         6  2.528354E-03  7.581180E-02  1.286696E-01
