
 displacements (vx,vy,vz) for set DISP and time  0.1000000E+01

         6 -7.394155E-03  1.539218E-02  1.303140E-01
