
 displacements (vx,vy,vz) for set DISP and time  0.1000000E+01

         6 -7.936424E-03  1.211241E-02  1.295397E-01
