
 displacements (vx,vy,vz) for set DISP and time  0.1000000E+01

         6 -2.027523E-04  5.900250E-02  1.285688E-01
