
 displacements (vx,vy,vz) for set VERTEX and time  0.1000000E+01

      1042 -2.363530E+01  3.192113E+01  0.000000E+00
