
 displacements (vx,vy,vz) for set VERTEX and time  0.1000000E+01

      2463 -2.398674E+01  3.227047E+01  0.000000E+00
