
 displacements (vx,vy,vz) for set VERTEX and time  0.1000000E+01

       118 -1.966719E+00  8.685405E+00  0.000000E+00
