
 displacements (vx,vy,vz) for set A and time  0.1000000E+01

         1  3.059485E-04 -1.298570E-21  1.752638E-04
