    1C
    1UUSER                                                              
    1UDATE              15.may.2021                                     
    1UTIME              14:50:29                                        
    1UHOST                                                              
    1UPGM               CalculiX                                        
    1UVERSION           Version 2.17                             
    1UCOMPILETIME       Thu Jul 23 21:43:50 CEST 2020                    
    1UDIR                                                               
    1UDBN                                                               
    1UMAT    1STEEL                                                     
    1UMAT    2CONTACT                                                   
    2C                           807                                     1
 -1         1 0.00000E+00 0.00000E+00 0.00000E+00
 -1         2 1.00000E+01 1.00000E+01 0.00000E+00
 -1         3 2.49974E-01 3.12484E-03 0.00000E+00
 -1         4 5.21990E-01 1.36330E-02 0.00000E+00
 -1         5 8.22294E-01 3.38657E-02 0.00000E+00
 -1         6 1.15150E+00 6.65190E-02 0.00000E+00
 -1         7 1.51185E+00 1.14945E-01 0.00000E+00
 -1         8 1.90554E+00 1.83233E-01 0.00000E+00
 -1         9 2.33462E+00 2.76340E-01 0.00000E+00
 -1        10 2.80084E+00 4.00246E-01 0.00000E+00
 -1        11 3.30549E+00 5.62111E-01 0.00000E+00
 -1        12 3.84908E+00 7.70449E-01 0.00000E+00
 -1        13 4.43101E+00 1.03528E+00 0.00000E+00
 -1        14 5.04911E+00 1.36828E+00 0.00000E+00
 -1        15 5.69898E+00 1.78284E+00 0.00000E+00
 -1        16 6.37324E+00 2.29404E+00 0.00000E+00
 -1        17 7.06057E+00 2.91845E+00 0.00000E+00
 -1        18 7.74449E+00 3.67364E+00 0.00000E+00
 -1        19 8.40204E+00 4.57730E+00 0.00000E+00
 -1        20 9.00225E+00 5.64575E+00 0.00000E+00
 -1        21 9.50464E+00 6.89165E+00 0.00000E+00
 -1        22 9.85890E+00 8.32604E+00 0.00000E+00
 -1        23 9.75000E+00 1.00000E+01 0.00000E+00
 -1        24 9.47797E+00 1.00000E+01 0.00000E+00
 -1        25 9.17708E+00 1.00000E+01 0.00000E+00
 -1        26 8.84637E+00 1.00000E+01 0.00000E+00
 -1        27 8.48293E+00 1.00000E+01 0.00000E+00
 -1        28 8.08355E+00 1.00000E+01 0.00000E+00
 -1        29 7.64472E+00 1.00000E+01 0.00000E+00
 -1        30 7.16259E+00 1.00000E+01 0.00000E+00
 -1        31 6.63297E+00 1.00000E+01 0.00000E+00
 -1        32 6.05126E+00 1.00000E+01 0.00000E+00
 -1        33 5.41241E+00 1.00000E+01 0.00000E+00
 -1        34 4.71095E+00 1.00000E+01 0.00000E+00
 -1        35 3.94088E+00 1.00000E+01 0.00000E+00
 -1        36 3.09565E+00 1.00000E+01 0.00000E+00
 -1        37 2.16814E+00 1.00000E+01 0.00000E+00
 -1        38 1.14874E+00 1.00000E+01 0.00000E+00
 -1        39 0.00000E+00 1.00000E+01 0.00000E+00
 -1        40 0.00000E+00 2.50000E-01 0.00000E+00
 -1        41 0.00000E+00 5.22033E-01 0.00000E+00
 -1        42 0.00000E+00 8.22923E-01 0.00000E+00
 -1        43 0.00000E+00 1.15363E+00 0.00000E+00
 -1        44 0.00000E+00 1.51707E+00 0.00000E+00
 -1        45 0.00000E+00 1.91645E+00 0.00000E+00
 -1        46 0.00000E+00 2.35528E+00 0.00000E+00
 -1        47 0.00000E+00 2.83741E+00 0.00000E+00
 -1        48 0.00000E+00 3.36703E+00 0.00000E+00
 -1        49 0.00000E+00 3.94875E+00 0.00000E+00
 -1        50 0.00000E+00 4.58759E+00 0.00000E+00
 -1        51 0.00000E+00 5.28905E+00 0.00000E+00
 -1        52 0.00000E+00 6.05912E+00 0.00000E+00
 -1        53 0.00000E+00 6.90435E+00 0.00000E+00
 -1        54 0.00000E+00 7.83186E+00 0.00000E+00
 -1        55 0.00000E+00 8.85126E+00 0.00000E+00
 -1        56 2.43725E-01 2.53047E-01 0.00000E+00
 -1        57 2.36924E-01 5.24994E-01 0.00000E+00
 -1        58 2.29403E-01 8.25791E-01 0.00000E+00
 -1        59 2.21136E-01 1.15639E+00 0.00000E+00
 -1        60 2.12051E-01 1.51972E+00 0.00000E+00
 -1        61 2.02068E-01 1.91898E+00 0.00000E+00
 -1        62 1.91098E-01 2.35767E+00 0.00000E+00
 -1        63 1.79046E-01 2.83964E+00 0.00000E+00
 -1        64 1.65807E-01 3.36910E+00 0.00000E+00
 -1        65 1.51266E-01 3.95064E+00 0.00000E+00
 -1        66 1.35296E-01 4.58928E+00 0.00000E+00
 -1        67 1.17761E-01 5.29052E+00 0.00000E+00
 -1        68 9.85116E-02 6.06036E+00 0.00000E+00
 -1        69 7.73831E-02 6.90532E+00 0.00000E+00
 -1        70 5.41979E-02 7.83254E+00 0.00000E+00
 -1        71 2.87156E-02 8.85162E+00 0.00000E+00
 -1        72 5.08940E-01 2.63292E-01 0.00000E+00
 -1        73 4.94740E-01 5.34954E-01 0.00000E+00
 -1        74 4.79034E-01 8.35434E-01 0.00000E+00
 -1        75 4.61772E-01 1.16569E+00 0.00000E+00
 -1        76 4.42800E-01 1.52863E+00 0.00000E+00
 -1        77 4.21953E-01 1.92747E+00 0.00000E+00
 -1        78 3.99046E-01 2.36570E+00 0.00000E+00
 -1        79 3.73880E-01 2.84717E+00 0.00000E+00
 -1        80 3.46234E-01 3.37607E+00 0.00000E+00
 -1        81 3.15869E-01 3.95699E+00 0.00000E+00
 -1        82 2.82522E-01 4.59497E+00 0.00000E+00
 -1        83 2.45907E-01 5.29547E+00 0.00000E+00
 -1        84 2.05710E-01 6.06450E+00 0.00000E+00
 -1        85 1.61590E-01 6.90857E+00 0.00000E+00
 -1        86 1.13175E-01 7.83482E+00 0.00000E+00
 -1        87 5.99632E-02 8.85282E+00 0.00000E+00
 -1        88 8.01736E-01 2.83019E-01 0.00000E+00
 -1        89 7.79367E-01 5.54130E-01 0.00000E+00
 -1        90 7.54625E-01 8.54002E-01 0.00000E+00
 -1        91 7.27432E-01 1.18359E+00 0.00000E+00
 -1        92 6.97546E-01 1.54580E+00 0.00000E+00
 -1        93 6.64705E-01 1.94383E+00 0.00000E+00
 -1        94 6.28620E-01 2.38117E+00 0.00000E+00
 -1        95 5.88976E-01 2.86166E+00 0.00000E+00
 -1        96 5.45425E-01 3.38949E+00 0.00000E+00
 -1        97 4.97591E-01 3.96924E+00 0.00000E+00
 -1        98 4.45059E-01 4.60592E+00 0.00000E+00
 -1        99 3.87378E-01 5.30500E+00 0.00000E+00
 -1       100 3.24056E-01 6.07247E+00 0.00000E+00
 -1       101 2.54553E-01 6.91484E+00 0.00000E+00
 -1       102 1.78285E-01 7.83920E+00 0.00000E+00
 -1       103 9.44604E-02 8.85515E+00 0.00000E+00
 -1       104 1.12271E+00 3.14856E-01 0.00000E+00
 -1       105 1.09139E+00 5.85079E-01 0.00000E+00
 -1       106 1.05674E+00 8.83968E-01 0.00000E+00
 -1       107 1.01866E+00 1.21247E+00 0.00000E+00
 -1       108 9.76811E-01 1.57350E+00 0.00000E+00
 -1       109 9.30822E-01 1.97022E+00 0.00000E+00
 -1       110 8.80290E-01 2.40613E+00 0.00000E+00
 -1       111 8.24774E-01 2.88505E+00 0.00000E+00
 -1       112 7.63788E-01 3.41115E+00 0.00000E+00
 -1       113 6.96803E-01 3.98900E+00 0.00000E+00
 -1       114 6.23240E-01 4.62359E+00 0.00000E+00
 -1       115 5.42467E-01 5.32039E+00 0.00000E+00
 -1       116 4.53792E-01 6.08534E+00 0.00000E+00
 -1       117 3.56464E-01 6.92494E+00 0.00000E+00
 -1       118 2.49662E-01 7.84628E+00 0.00000E+00
 -1       119 1.32278E-01 8.85890E+00 0.00000E+00
 -1       120 1.47406E+00 3.62072E-01 0.00000E+00
 -1       121 1.43293E+00 6.30978E-01 0.00000E+00
 -1       122 1.38744E+00 9.28410E-01 0.00000E+00
 -1       123 1.33744E+00 1.25531E+00 0.00000E+00
 -1       124 1.28249E+00 1.61458E+00 0.00000E+00
 -1       125 1.22211E+00 2.00937E+00 0.00000E+00
 -1       126 1.15577E+00 2.44315E+00 0.00000E+00
 -1       127 1.08288E+00 2.91974E+00 0.00000E+00
 -1       128 1.00281E+00 3.44327E+00 0.00000E+00
 -1       129 9.14860E-01 4.01830E+00 0.00000E+00
 -1       130 8.18277E-01 4.64980E+00 0.00000E+00
 -1       131 7.12226E-01 5.34320E+00 0.00000E+00
 -1       132 5.95802E-01 6.10442E+00 0.00000E+00
 -1       133 4.68016E-01 6.93994E+00 0.00000E+00
 -1       134 3.27791E-01 7.85678E+00 0.00000E+00
 -1       135 1.73673E-01 8.86446E+00 0.00000E+00
 -1       136 1.85790E+00 4.28652E-01 0.00000E+00
 -1       137 1.80607E+00 6.95700E-01 0.00000E+00
 -1       138 1.74873E+00 9.91078E-01 0.00000E+00
 -1       139 1.68571E+00 1.31572E+00 0.00000E+00
 -1       140 1.61646E+00 1.67250E+00 0.00000E+00
 -1       141 1.54035E+00 2.06457E+00 0.00000E+00
 -1       142 1.45673E+00 2.49536E+00 0.00000E+00
 -1       143 1.36486E+00 2.96865E+00 0.00000E+00
 -1       144 1.26394E+00 3.48856E+00 0.00000E+00
 -1       145 1.15309E+00 4.05962E+00 0.00000E+00
 -1       146 1.03136E+00 4.68676E+00 0.00000E+00
 -1       147 8.97691E-01 5.37537E+00 0.00000E+00
 -1       148 7.50950E-01 6.13133E+00 0.00000E+00
 -1       149 5.89888E-01 6.96107E+00 0.00000E+00
 -1       150 4.13148E-01 7.87159E+00 0.00000E+00
 -1       151 2.18898E-01 8.87231E+00 0.00000E+00
 -1       152 2.27625E+00 5.19432E-01 0.00000E+00
 -1       153 2.21274E+00 7.83947E-01 0.00000E+00
 -1       154 2.14250E+00 1.07652E+00 0.00000E+00
 -1       155 2.06529E+00 1.39809E+00 0.00000E+00
 -1       156 1.98044E+00 1.75149E+00 0.00000E+00
 -1       157 1.88720E+00 2.13983E+00 0.00000E+00
 -1       158 1.78475E+00 2.56654E+00 0.00000E+00
 -1       159 1.67219E+00 3.03534E+00 0.00000E+00
 -1       160 1.54855E+00 3.55032E+00 0.00000E+00
 -1       161 1.41274E+00 4.11597E+00 0.00000E+00
 -1       162 1.26359E+00 4.73715E+00 0.00000E+00
 -1       163 1.09983E+00 5.41923E+00 0.00000E+00
 -1       164 9.20044E-01 6.16803E+00 0.00000E+00
 -1       165 7.22715E-01 6.98990E+00 0.00000E+00
 -1       166 5.06178E-01 7.89177E+00 0.00000E+00
 -1       167 2.68188E-01 8.88300E+00 0.00000E+00
 -1       168 2.73082E+00 6.40239E-01 0.00000E+00
 -1       169 2.65463E+00 9.01384E-01 0.00000E+00
 -1       170 2.57035E+00 1.19023E+00 0.00000E+00
 -1       171 2.47773E+00 1.50770E+00 0.00000E+00
 -1       172 2.37594E+00 1.85659E+00 0.00000E+00
 -1       173 2.26407E+00 2.23999E+00 0.00000E+00
 -1       174 2.14116E+00 2.66126E+00 0.00000E+00
 -1       175 2.00613E+00 3.12409E+00 0.00000E+00
 -1       176 1.85779E+00 3.63251E+00 0.00000E+00
 -1       177 1.69486E+00 4.19094E+00 0.00000E+00
 -1       178 1.51593E+00 4.80422E+00 0.00000E+00
 -1       179 1.31946E+00 5.47760E+00 0.00000E+00
 -1       180 1.10378E+00 6.21686E+00 0.00000E+00
 -1       181 8.67042E-01 7.02825E+00 0.00000E+00
 -1       182 6.07262E-01 7.91864E+00 0.00000E+00
 -1       183 3.21745E-01 8.89723E+00 0.00000E+00
 -1       184 3.22285E+00 7.98058E-01 0.00000E+00
 -1       185 3.13293E+00 1.05480E+00 0.00000E+00
 -1       186 3.03347E+00 1.33878E+00 0.00000E+00
 -1       187 2.92416E+00 1.65089E+00 0.00000E+00
 -1       188 2.80402E+00 1.99390E+00 0.00000E+00
 -1       189 2.67201E+00 2.37084E+00 0.00000E+00
 -1       190 2.52695E+00 2.78500E+00 0.00000E+00
 -1       191 2.36759E+00 3.24002E+00 0.00000E+00
 -1       192 2.19252E+00 3.73987E+00 0.00000E+00
 -1       193 2.00024E+00 4.28889E+00 0.00000E+00
 -1       194 1.78907E+00 4.89183E+00 0.00000E+00
 -1       195 1.55720E+00 5.55386E+00 0.00000E+00
 -1       196 1.30265E+00 6.28065E+00 0.00000E+00
 -1       197 1.02326E+00 7.07836E+00 0.00000E+00
 -1       198 7.16676E-01 7.95373E+00 0.00000E+00
 -1       199 3.79716E-01 8.91583E+00 0.00000E+00
 -1       200 3.75285E+00 1.00119E+00 0.00000E+00
 -1       201 3.64814E+00 1.25226E+00 0.00000E+00
 -1       202 3.53233E+00 1.52997E+00 0.00000E+00
 -1       203 3.40504E+00 1.83520E+00 0.00000E+00
 -1       204 3.26515E+00 2.17064E+00 0.00000E+00
 -1       205 3.11142E+00 2.53925E+00 0.00000E+00
 -1       206 2.94251E+00 2.94427E+00 0.00000E+00
 -1       207 2.75694E+00 3.38925E+00 0.00000E+00
 -1       208 2.55308E+00 3.87806E+00 0.00000E+00
 -1       209 2.32917E+00 4.41496E+00 0.00000E+00
 -1       210 2.08328E+00 5.00459E+00 0.00000E+00
 -1       211 1.81328E+00 5.65200E+00 0.00000E+00
 -1       212 1.51687E+00 6.36275E+00 0.00000E+00
 -1       213 1.19154E+00 7.14286E+00 0.00000E+00
 -1       214 8.34534E-01 7.99890E+00 0.00000E+00
 -1       215 4.42160E-01 8.93976E+00 0.00000E+00
 -1       216 4.32024E+00 1.25940E+00 0.00000E+00
 -1       217 4.19970E+00 1.50327E+00 0.00000E+00
 -1       218 4.06637E+00 1.77301E+00 0.00000E+00
 -1       219 3.91984E+00 2.06948E+00 0.00000E+00
 -1       220 3.75880E+00 2.39529E+00 0.00000E+00
 -1       221 3.58183E+00 2.75333E+00 0.00000E+00
 -1       222 3.38738E+00 3.14673E+00 0.00000E+00
 -1       223 3.17375E+00 3.57894E+00 0.00000E+00
 -1       224 2.93908E+00 4.05373E+00 0.00000E+00
 -1       225 2.68132E+00 4.57522E+00 0.00000E+00
 -1       226 2.39825E+00 5.14793E+00 0.00000E+00
 -1       227 2.08743E+00 5.77677E+00 0.00000E+00
 -1       228 1.74621E+00 6.46712E+00 0.00000E+00
 -1       229 1.37168E+00 7.22484E+00 0.00000E+00
 -1       230 9.60705E-01 8.05632E+00 0.00000E+00
 -1       231 5.09009E-01 8.97018E+00 0.00000E+00
 -1       232 4.92288E+00 1.58408E+00 0.00000E+00
 -1       233 4.78553E+00 1.81889E+00 0.00000E+00
 -1       234 4.63360E+00 2.07861E+00 0.00000E+00
 -1       235 4.46663E+00 2.36406E+00 0.00000E+00
 -1       236 4.28312E+00 2.67777E+00 0.00000E+00
 -1       237 4.08147E+00 3.02251E+00 0.00000E+00
 -1       238 3.85990E+00 3.40130E+00 0.00000E+00
 -1       239 3.61647E+00 3.81745E+00 0.00000E+00
 -1       240 3.34906E+00 4.27461E+00 0.00000E+00
 -1       241 3.05534E+00 4.77673E+00 0.00000E+00
 -1       242 2.73278E+00 5.32816E+00 0.00000E+00
 -1       243 2.37861E+00 5.93364E+00 0.00000E+00
 -1       244 1.98979E+00 6.59835E+00 0.00000E+00
 -1       245 1.56303E+00 7.32793E+00 0.00000E+00
 -1       246 1.09472E+00 8.12852E+00 0.00000E+00
 -1       247 5.80013E-01 9.00844E+00 0.00000E+00
 -1       248 5.55650E+00 1.98827E+00 0.00000E+00
 -1       249 5.40147E+00 2.21180E+00 0.00000E+00
 -1       250 5.22999E+00 2.45905E+00 0.00000E+00
 -1       251 5.04153E+00 2.73080E+00 0.00000E+00
 -1       252 4.83440E+00 3.02944E+00 0.00000E+00
 -1       253 4.60680E+00 3.35762E+00 0.00000E+00
 -1       254 4.35671E+00 3.71821E+00 0.00000E+00
 -1       255 4.08194E+00 4.11438E+00 0.00000E+00
 -1       256 3.78012E+00 4.54958E+00 0.00000E+00
 -1       257 3.44860E+00 5.02759E+00 0.00000E+00
 -1       258 3.08452E+00 5.55254E+00 0.00000E+00
 -1       259 2.68476E+00 6.12894E+00 0.00000E+00
 -1       260 2.24590E+00 6.76172E+00 0.00000E+00
 -1       261 1.76420E+00 7.45626E+00 0.00000E+00
 -1       262 1.23562E+00 8.21840E+00 0.00000E+00
 -1       263 6.54666E-01 9.05606E+00 0.00000E+00
 -1       264 6.21391E+00 2.48669E+00 0.00000E+00
 -1       265 6.04054E+00 2.69632E+00 0.00000E+00
 -1       266 5.84877E+00 2.92818E+00 0.00000E+00
 -1       267 5.63801E+00 3.18302E+00 0.00000E+00
 -1       268 5.40638E+00 3.46309E+00 0.00000E+00
 -1       269 5.15184E+00 3.77085E+00 0.00000E+00
 -1       270 4.87216E+00 4.10901E+00 0.00000E+00
 -1       271 4.56489E+00 4.48053E+00 0.00000E+00
 -1       272 4.22735E+00 4.88866E+00 0.00000E+00
 -1       273 3.85661E+00 5.33693E+00 0.00000E+00
 -1       274 3.44946E+00 5.82922E+00 0.00000E+00
 -1       275 3.00240E+00 6.36976E+00 0.00000E+00
 -1       276 2.51162E+00 6.96318E+00 0.00000E+00
 -1       277 1.97293E+00 7.61451E+00 0.00000E+00
 -1       278 1.38181E+00 8.32924E+00 0.00000E+00
 -1       279 7.32122E-01 9.11478E+00 0.00000E+00
 -1       280 6.88406E+00 3.09549E+00 0.00000E+00
 -1       281 6.69199E+00 3.28813E+00 0.00000E+00
 -1       282 6.47954E+00 3.50121E+00 0.00000E+00
 -1       283 6.24604E+00 3.73540E+00 0.00000E+00
 -1       284 5.98943E+00 3.99277E+00 0.00000E+00
 -1       285 5.70745E+00 4.27559E+00 0.00000E+00
 -1       286 5.39761E+00 4.58636E+00 0.00000E+00
 -1       287 5.05720E+00 4.92777E+00 0.00000E+00
 -1       288 4.68326E+00 5.30283E+00 0.00000E+00
 -1       289 4.27253E+00 5.71477E+00 0.00000E+00
 -1       290 3.82147E+00 6.16717E+00 0.00000E+00
 -1       291 3.32620E+00 6.66392E+00 0.00000E+00
 -1       292 2.78248E+00 7.20925E+00 0.00000E+00
 -1       293 2.18570E+00 7.80780E+00 0.00000E+00
 -1       294 1.53083E+00 8.46462E+00 0.00000E+00
 -1       295 8.11078E-01 9.18651E+00 0.00000E+00
 -1       296 7.55088E+00 3.83180E+00 0.00000E+00
 -1       297 7.34021E+00 4.00390E+00 0.00000E+00
 -1       298 7.10718E+00 4.19425E+00 0.00000E+00
 -1       299 6.85107E+00 4.40347E+00 0.00000E+00
 -1       300 6.56960E+00 4.63339E+00 0.00000E+00
 -1       301 6.26030E+00 4.88606E+00 0.00000E+00
 -1       302 5.92045E+00 5.16368E+00 0.00000E+00
 -1       303 5.54707E+00 5.46869E+00 0.00000E+00
 -1       304 5.13690E+00 5.80374E+00 0.00000E+00
 -1       305 4.68639E+00 6.17176E+00 0.00000E+00
 -1       306 4.19164E+00 6.57591E+00 0.00000E+00
 -1       307 3.64839E+00 7.01968E+00 0.00000E+00
 -1       308 3.05201E+00 7.50686E+00 0.00000E+00
 -1       309 2.39742E+00 8.04158E+00 0.00000E+00
 -1       310 1.67912E+00 8.62836E+00 0.00000E+00
 -1       311 8.89644E-01 9.27326E+00 0.00000E+00
 -1       312 8.19199E+00 4.71287E+00 0.00000E+00
 -1       313 7.96343E+00 4.86038E+00 0.00000E+00
 -1       314 7.71062E+00 5.02355E+00 0.00000E+00
 -1       315 7.43276E+00 5.20288E+00 0.00000E+00
 -1       316 7.12740E+00 5.39996E+00 0.00000E+00
 -1       317 6.79183E+00 5.61654E+00 0.00000E+00
 -1       318 6.42313E+00 5.85450E+00 0.00000E+00
 -1       319 6.01804E+00 6.11594E+00 0.00000E+00
 -1       320 5.57305E+00 6.40314E+00 0.00000E+00
 -1       321 5.08429E+00 6.71859E+00 0.00000E+00
 -1       322 4.54753E+00 7.06501E+00 0.00000E+00
 -1       323 3.95816E+00 7.44539E+00 0.00000E+00
 -1       324 3.31114E+00 7.86298E+00 0.00000E+00
 -1       325 2.60098E+00 8.32132E+00 0.00000E+00
 -1       326 1.82168E+00 8.82428E+00 0.00000E+00
 -1       327 9.65179E-01 9.37707E+00 0.00000E+00
 -1       328 8.77719E+00 5.75460E+00 0.00000E+00
 -1       329 8.53230E+00 5.87305E+00 0.00000E+00
 -1       330 8.26143E+00 6.00407E+00 0.00000E+00
 -1       331 7.96373E+00 6.14807E+00 0.00000E+00
 -1       332 7.63655E+00 6.30632E+00 0.00000E+00
 -1       333 7.27701E+00 6.48022E+00 0.00000E+00
 -1       334 6.88197E+00 6.67130E+00 0.00000E+00
 -1       335 6.44795E+00 6.88123E+00 0.00000E+00
 -1       336 5.97117E+00 7.11184E+00 0.00000E+00
 -1       337 5.44749E+00 7.36513E+00 0.00000E+00
 -1       338 4.87239E+00 7.64330E+00 0.00000E+00
 -1       339 4.24091E+00 7.94873E+00 0.00000E+00
 -1       340 3.54767E+00 8.28404E+00 0.00000E+00
 -1       341 2.78678E+00 8.65208E+00 0.00000E+00
 -1       342 1.95181E+00 9.05594E+00 0.00000E+00
 -1       343 1.03413E+00 9.49981E+00 0.00000E+00
 -1       344 9.26702E+00 6.96936E+00 0.00000E+00
 -1       345 9.00846E+00 7.05391E+00 0.00000E+00
 -1       346 8.72248E+00 7.14744E+00 0.00000E+00
 -1       347 8.40816E+00 7.25024E+00 0.00000E+00
 -1       348 8.06272E+00 7.36321E+00 0.00000E+00
 -1       349 7.68312E+00 7.48735E+00 0.00000E+00
 -1       350 7.26603E+00 7.62375E+00 0.00000E+00
 -1       351 6.80779E+00 7.77361E+00 0.00000E+00
 -1       352 6.30440E+00 7.93824E+00 0.00000E+00
 -1       353 5.75150E+00 8.11906E+00 0.00000E+00
 -1       354 5.14430E+00 8.31763E+00 0.00000E+00
 -1       355 4.47759E+00 8.53567E+00 0.00000E+00
 -1       356 3.74566E+00 8.77504E+00 0.00000E+00
 -1       357 2.94230E+00 9.03776E+00 0.00000E+00
 -1       358 2.06074E+00 9.32607E+00 0.00000E+00
 -1       359 1.09184E+00 9.64293E+00 0.00000E+00
 -1       360 9.61243E+00 8.36789E+00 0.00000E+00
 -1       361 9.34423E+00 8.41343E+00 0.00000E+00
 -1       362 9.04759E+00 8.46380E+00 0.00000E+00
 -1       363 8.72155E+00 8.51916E+00 0.00000E+00
 -1       364 8.36324E+00 8.57999E+00 0.00000E+00
 -1       365 7.96949E+00 8.64685E+00 0.00000E+00
 -1       366 7.53685E+00 8.72031E+00 0.00000E+00
 -1       367 7.06153E+00 8.80101E+00 0.00000E+00
 -1       368 6.53938E+00 8.88967E+00 0.00000E+00
 -1       369 5.96587E+00 8.98705E+00 0.00000E+00
 -1       370 5.33604E+00 9.09399E+00 0.00000E+00
 -1       371 4.64448E+00 9.21141E+00 0.00000E+00
 -1       372 3.88527E+00 9.34031E+00 0.00000E+00
 -1       373 3.05197E+00 9.48180E+00 0.00000E+00
 -1       374 2.13755E+00 9.63706E+00 0.00000E+00
 -1       375 1.13253E+00 9.80770E+00 0.00000E+00
 -1       376 4.00000E+01 0.00000E+00 0.00000E+00
 -1       377 0.00000E+00 0.00000E+00 0.00000E+00
 -1       378 0.00000E+00-2.00000E+01 0.00000E+00
 -1       379 4.00000E+01-2.00000E+01 0.00000E+00
 -1       381 3.59299E+01 0.00000E+00 0.00000E+00
 -1       382 3.21866E+01 0.00000E+00 0.00000E+00
 -1       383 2.87886E+01 0.00000E+00 0.00000E+00
 -1       384 2.57024E+01 0.00000E+00 0.00000E+00
 -1       385 2.28994E+01 0.00000E+00 0.00000E+00
 -1       386 2.03532E+01 0.00000E+00 0.00000E+00
 -1       387 1.80402E+01 0.00000E+00 0.00000E+00
 -1       388 1.59389E+01 0.00000E+00 0.00000E+00
 -1       389 1.40298E+01 0.00000E+00 0.00000E+00
 -1       390 1.22952E+01 0.00000E+00 0.00000E+00
 -1       391 1.07191E+01 0.00000E+00 0.00000E+00
 -1       392 9.28699E+00 0.00000E+00 0.00000E+00
 -1       393 7.98558E+00 0.00000E+00 0.00000E+00
 -1       394 6.80292E+00 0.00000E+00 0.00000E+00
 -1       395 5.72816E+00 0.00000E+00 0.00000E+00
 -1       396 4.75140E+00 0.00000E+00 0.00000E+00
 -1       397 3.86370E+00 0.00000E+00 0.00000E+00
 -1       398 3.05691E+00 0.00000E+00 0.00000E+00
 -1       399 2.32364E+00 0.00000E+00 0.00000E+00
 -1       400 1.65717E+00 0.00000E+00 0.00000E+00
 -1       401 1.05141E+00 0.00000E+00 0.00000E+00
 -1       402 5.00000E-01 0.00000E+00 0.00000E+00
 -1       403 0.00000E+00-5.00000E-01 0.00000E+00
 -1       404 0.00000E+00-1.04407E+00 0.00000E+00
 -1       405 0.00000E+00-1.64585E+00 0.00000E+00
 -1       406 0.00000E+00-2.30726E+00 0.00000E+00
 -1       407 0.00000E+00-3.03414E+00 0.00000E+00
 -1       408 0.00000E+00-3.83290E+00 0.00000E+00
 -1       409 0.00000E+00-4.71056E+00 0.00000E+00
 -1       410 0.00000E+00-5.67481E+00 0.00000E+00
 -1       411 0.00000E+00-6.73405E+00 0.00000E+00
 -1       412 0.00000E+00-7.89749E+00 0.00000E+00
 -1       413 0.00000E+00-9.17518E+00 0.00000E+00
 -1       414 0.00000E+00-1.05781E+01 0.00000E+00
 -1       415 0.00000E+00-1.21182E+01 0.00000E+00
 -1       416 0.00000E+00-1.38087E+01 0.00000E+00
 -1       417 0.00000E+00-1.56637E+01 0.00000E+00
 -1       418 0.00000E+00-1.77025E+01 0.00000E+00
 -1       419 5.00000E-01-2.00000E+01 0.00000E+00
 -1       420 1.05141E+00-2.00000E+01 0.00000E+00
 -1       421 1.65717E+00-2.00000E+01 0.00000E+00
 -1       422 2.32364E+00-2.00000E+01 0.00000E+00
 -1       423 3.05691E+00-2.00000E+01 0.00000E+00
 -1       424 3.86370E+00-2.00000E+01 0.00000E+00
 -1       425 4.75140E+00-2.00000E+01 0.00000E+00
 -1       426 5.72816E+00-2.00000E+01 0.00000E+00
 -1       427 6.80292E+00-2.00000E+01 0.00000E+00
 -1       428 7.98558E+00-2.00000E+01 0.00000E+00
 -1       429 9.28699E+00-2.00000E+01 0.00000E+00
 -1       430 1.07191E+01-2.00000E+01 0.00000E+00
 -1       431 1.22952E+01-2.00000E+01 0.00000E+00
 -1       432 1.40298E+01-2.00000E+01 0.00000E+00
 -1       433 1.59389E+01-2.00000E+01 0.00000E+00
 -1       434 1.80402E+01-2.00000E+01 0.00000E+00
 -1       435 2.03532E+01-2.00000E+01 0.00000E+00
 -1       436 2.28994E+01-2.00000E+01 0.00000E+00
 -1       437 2.57024E+01-2.00000E+01 0.00000E+00
 -1       438 2.87886E+01-2.00000E+01 0.00000E+00
 -1       439 3.21866E+01-2.00000E+01 0.00000E+00
 -1       440 3.59299E+01-2.00000E+01 0.00000E+00
 -1       441 4.00000E+01-1.77025E+01 0.00000E+00
 -1       442 4.00000E+01-1.56637E+01 0.00000E+00
 -1       443 4.00000E+01-1.38087E+01 0.00000E+00
 -1       444 4.00000E+01-1.21182E+01 0.00000E+00
 -1       445 4.00000E+01-1.05781E+01 0.00000E+00
 -1       446 4.00000E+01-9.17518E+00 0.00000E+00
 -1       447 4.00000E+01-7.89749E+00 0.00000E+00
 -1       448 4.00000E+01-6.73405E+00 0.00000E+00
 -1       449 4.00000E+01-5.67481E+00 0.00000E+00
 -1       450 4.00000E+01-4.71056E+00 0.00000E+00
 -1       451 4.00000E+01-3.83290E+00 0.00000E+00
 -1       452 4.00000E+01-3.03414E+00 0.00000E+00
 -1       453 4.00000E+01-2.30726E+00 0.00000E+00
 -1       454 4.00000E+01-1.64585E+00 0.00000E+00
 -1       455 4.00000E+01-1.04407E+00 0.00000E+00
 -1       456 4.00000E+01-5.00000E-01 0.00000E+00
 -1       457 3.59299E+01-5.00000E-01 0.00000E+00
 -1       458 3.59299E+01-1.04407E+00 0.00000E+00
 -1       459 3.59299E+01-1.64585E+00 0.00000E+00
 -1       460 3.59299E+01-2.30726E+00 0.00000E+00
 -1       461 3.59299E+01-3.03414E+00 0.00000E+00
 -1       462 3.59299E+01-3.83290E+00 0.00000E+00
 -1       463 3.59299E+01-4.71056E+00 0.00000E+00
 -1       464 3.59299E+01-5.67481E+00 0.00000E+00
 -1       465 3.59299E+01-6.73405E+00 0.00000E+00
 -1       466 3.59299E+01-7.89749E+00 0.00000E+00
 -1       467 3.59299E+01-9.17518E+00 0.00000E+00
 -1       468 3.59299E+01-1.05781E+01 0.00000E+00
 -1       469 3.59299E+01-1.21182E+01 0.00000E+00
 -1       470 3.59299E+01-1.38087E+01 0.00000E+00
 -1       471 3.59299E+01-1.56637E+01 0.00000E+00
 -1       472 3.59299E+01-1.77025E+01 0.00000E+00
 -1       473 3.21866E+01-5.00000E-01 0.00000E+00
 -1       474 3.21866E+01-1.04407E+00 0.00000E+00
 -1       475 3.21866E+01-1.64585E+00 0.00000E+00
 -1       476 3.21866E+01-2.30726E+00 0.00000E+00
 -1       477 3.21866E+01-3.03414E+00 0.00000E+00
 -1       478 3.21866E+01-3.83290E+00 0.00000E+00
 -1       479 3.21866E+01-4.71056E+00 0.00000E+00
 -1       480 3.21866E+01-5.67481E+00 0.00000E+00
 -1       481 3.21866E+01-6.73405E+00 0.00000E+00
 -1       482 3.21866E+01-7.89749E+00 0.00000E+00
 -1       483 3.21866E+01-9.17518E+00 0.00000E+00
 -1       484 3.21866E+01-1.05781E+01 0.00000E+00
 -1       485 3.21866E+01-1.21182E+01 0.00000E+00
 -1       486 3.21866E+01-1.38087E+01 0.00000E+00
 -1       487 3.21866E+01-1.56637E+01 0.00000E+00
 -1       488 3.21866E+01-1.77025E+01 0.00000E+00
 -1       489 2.87886E+01-5.00000E-01 0.00000E+00
 -1       490 2.87886E+01-1.04407E+00 0.00000E+00
 -1       491 2.87886E+01-1.64585E+00 0.00000E+00
 -1       492 2.87886E+01-2.30726E+00 0.00000E+00
 -1       493 2.87886E+01-3.03414E+00 0.00000E+00
 -1       494 2.87886E+01-3.83290E+00 0.00000E+00
 -1       495 2.87886E+01-4.71056E+00 0.00000E+00
 -1       496 2.87886E+01-5.67481E+00 0.00000E+00
 -1       497 2.87886E+01-6.73405E+00 0.00000E+00
 -1       498 2.87886E+01-7.89749E+00 0.00000E+00
 -1       499 2.87886E+01-9.17518E+00 0.00000E+00
 -1       500 2.87886E+01-1.05781E+01 0.00000E+00
 -1       501 2.87886E+01-1.21182E+01 0.00000E+00
 -1       502 2.87886E+01-1.38087E+01 0.00000E+00
 -1       503 2.87886E+01-1.56637E+01 0.00000E+00
 -1       504 2.87886E+01-1.77025E+01 0.00000E+00
 -1       505 2.57024E+01-5.00000E-01 0.00000E+00
 -1       506 2.57024E+01-1.04407E+00 0.00000E+00
 -1       507 2.57024E+01-1.64585E+00 0.00000E+00
 -1       508 2.57024E+01-2.30726E+00 0.00000E+00
 -1       509 2.57024E+01-3.03414E+00 0.00000E+00
 -1       510 2.57024E+01-3.83290E+00 0.00000E+00
 -1       511 2.57024E+01-4.71056E+00 0.00000E+00
 -1       512 2.57024E+01-5.67481E+00 0.00000E+00
 -1       513 2.57024E+01-6.73405E+00 0.00000E+00
 -1       514 2.57024E+01-7.89749E+00 0.00000E+00
 -1       515 2.57024E+01-9.17518E+00 0.00000E+00
 -1       516 2.57024E+01-1.05781E+01 0.00000E+00
 -1       517 2.57024E+01-1.21182E+01 0.00000E+00
 -1       518 2.57024E+01-1.38087E+01 0.00000E+00
 -1       519 2.57024E+01-1.56637E+01 0.00000E+00
 -1       520 2.57024E+01-1.77025E+01 0.00000E+00
 -1       521 2.28994E+01-5.00000E-01 0.00000E+00
 -1       522 2.28994E+01-1.04407E+00 0.00000E+00
 -1       523 2.28994E+01-1.64585E+00 0.00000E+00
 -1       524 2.28994E+01-2.30726E+00 0.00000E+00
 -1       525 2.28994E+01-3.03414E+00 0.00000E+00
 -1       526 2.28994E+01-3.83290E+00 0.00000E+00
 -1       527 2.28994E+01-4.71056E+00 0.00000E+00
 -1       528 2.28994E+01-5.67481E+00 0.00000E+00
 -1       529 2.28994E+01-6.73405E+00 0.00000E+00
 -1       530 2.28994E+01-7.89749E+00 0.00000E+00
 -1       531 2.28994E+01-9.17518E+00 0.00000E+00
 -1       532 2.28994E+01-1.05781E+01 0.00000E+00
 -1       533 2.28994E+01-1.21182E+01 0.00000E+00
 -1       534 2.28994E+01-1.38087E+01 0.00000E+00
 -1       535 2.28994E+01-1.56637E+01 0.00000E+00
 -1       536 2.28994E+01-1.77025E+01 0.00000E+00
 -1       537 2.03532E+01-5.00000E-01 0.00000E+00
 -1       538 2.03532E+01-1.04407E+00 0.00000E+00
 -1       539 2.03532E+01-1.64585E+00 0.00000E+00
 -1       540 2.03532E+01-2.30726E+00 0.00000E+00
 -1       541 2.03532E+01-3.03414E+00 0.00000E+00
 -1       542 2.03532E+01-3.83290E+00 0.00000E+00
 -1       543 2.03532E+01-4.71056E+00 0.00000E+00
 -1       544 2.03532E+01-5.67481E+00 0.00000E+00
 -1       545 2.03532E+01-6.73405E+00 0.00000E+00
 -1       546 2.03532E+01-7.89749E+00 0.00000E+00
 -1       547 2.03532E+01-9.17518E+00 0.00000E+00
 -1       548 2.03532E+01-1.05781E+01 0.00000E+00
 -1       549 2.03532E+01-1.21182E+01 0.00000E+00
 -1       550 2.03532E+01-1.38087E+01 0.00000E+00
 -1       551 2.03532E+01-1.56637E+01 0.00000E+00
 -1       552 2.03532E+01-1.77025E+01 0.00000E+00
 -1       553 1.80402E+01-5.00000E-01 0.00000E+00
 -1       554 1.80402E+01-1.04407E+00 0.00000E+00
 -1       555 1.80402E+01-1.64585E+00 0.00000E+00
 -1       556 1.80402E+01-2.30726E+00 0.00000E+00
 -1       557 1.80402E+01-3.03414E+00 0.00000E+00
 -1       558 1.80402E+01-3.83290E+00 0.00000E+00
 -1       559 1.80402E+01-4.71056E+00 0.00000E+00
 -1       560 1.80402E+01-5.67481E+00 0.00000E+00
 -1       561 1.80402E+01-6.73405E+00 0.00000E+00
 -1       562 1.80402E+01-7.89749E+00 0.00000E+00
 -1       563 1.80402E+01-9.17518E+00 0.00000E+00
 -1       564 1.80402E+01-1.05781E+01 0.00000E+00
 -1       565 1.80402E+01-1.21182E+01 0.00000E+00
 -1       566 1.80402E+01-1.38087E+01 0.00000E+00
 -1       567 1.80402E+01-1.56637E+01 0.00000E+00
 -1       568 1.80402E+01-1.77025E+01 0.00000E+00
 -1       569 1.59389E+01-5.00000E-01 0.00000E+00
 -1       570 1.59389E+01-1.04407E+00 0.00000E+00
 -1       571 1.59389E+01-1.64585E+00 0.00000E+00
 -1       572 1.59389E+01-2.30726E+00 0.00000E+00
 -1       573 1.59389E+01-3.03414E+00 0.00000E+00
 -1       574 1.59389E+01-3.83290E+00 0.00000E+00
 -1       575 1.59389E+01-4.71056E+00 0.00000E+00
 -1       576 1.59389E+01-5.67481E+00 0.00000E+00
 -1       577 1.59389E+01-6.73405E+00 0.00000E+00
 -1       578 1.59389E+01-7.89749E+00 0.00000E+00
 -1       579 1.59389E+01-9.17518E+00 0.00000E+00
 -1       580 1.59389E+01-1.05781E+01 0.00000E+00
 -1       581 1.59389E+01-1.21182E+01 0.00000E+00
 -1       582 1.59389E+01-1.38087E+01 0.00000E+00
 -1       583 1.59389E+01-1.56637E+01 0.00000E+00