    1C
    1UHash: PXJD0WWr, Date: 03/11/2021, Unit system: MM_TON_S_C         
    1UUSER                                                              
    1UDATE              11.march.2021                                   
    1UTIME              20:40:36                                        
    1UHOST                                                              
    1UPGM               CalculiX                                        
    1UVERSION           Version 2.10                             
    1UCOMPILETIME       Sa 5. Mär 12:23:33 CET 2016                    
    1UDIR                                                               
    1UDBN                                                               
    1UMAT    1RUBBER                                                    
    2C                           156                                     1
 -1       881 4.80000E+01 4.40000E+01 0.00000E+00
 -1       882 4.80000E+01 4.40000E+01 5.00000E+00
 -1       883 0.00000E+00 0.00000E+00 0.00000E+00
 -1       884 0.00000E+00 0.00000E+00 5.00000E+00
 -1       885 4.80000E+01 6.00000E+01 0.00000E+00
 -1       886 4.80000E+01 6.00000E+01 5.00000E+00
 -1       887 0.00000E+00 4.40000E+01 0.00000E+00
 -1       888 0.00000E+00 4.40000E+01 5.00000E+00
 -1       889 4.36364E+01 4.00000E+01 0.00000E+00
 -1       890 3.92727E+01 3.60000E+01 0.00000E+00
 -1       891 3.49091E+01 3.20000E+01 0.00000E+00
 -1       892 3.05455E+01 2.80000E+01 0.00000E+00
 -1       893 2.61818E+01 2.40000E+01 0.00000E+00
 -1       894 2.18182E+01 2.00000E+01 0.00000E+00
 -1       895 1.74545E+01 1.60000E+01 0.00000E+00
 -1       896 1.30909E+01 1.20000E+01 0.00000E+00
 -1       897 8.72727E+00 8.00000E+00 0.00000E+00
 -1       898 4.36364E+00 4.00000E+00 0.00000E+00
 -1       899 4.36364E+01 4.00000E+01 5.00000E+00
 -1       900 3.92727E+01 3.60000E+01 5.00000E+00
 -1       901 3.49091E+01 3.20000E+01 5.00000E+00
 -1       902 3.05455E+01 2.80000E+01 5.00000E+00
 -1       903 2.61818E+01 2.40000E+01 5.00000E+00
 -1       904 2.18182E+01 2.00000E+01 5.00000E+00
 -1       905 1.74545E+01 1.60000E+01 5.00000E+00
 -1       906 1.30909E+01 1.20000E+01 5.00000E+00
 -1       907 8.72727E+00 8.00000E+00 5.00000E+00
 -1       908 4.36364E+00 4.00000E+00 5.00000E+00
 -1       909 4.80000E+01 5.46667E+01 0.00000E+00
 -1       910 4.80000E+01 4.93333E+01 0.00000E+00
 -1       911 4.80000E+01 5.46667E+01 5.00000E+00
 -1       912 4.80000E+01 4.93333E+01 5.00000E+00
 -1       913 5.33333E+00 4.57778E+01 0.00000E+00
 -1       914 1.06667E+01 4.75556E+01 0.00000E+00
 -1       915 1.60000E+01 4.93333E+01 0.00000E+00
 -1       916 2.13333E+01 5.11111E+01 0.00000E+00
 -1       917 2.66667E+01 5.28889E+01 0.00000E+00
 -1       918 3.20000E+01 5.46667E+01 0.00000E+00
 -1       919 3.73333E+01 5.64444E+01 0.00000E+00
 -1       920 4.26667E+01 5.82222E+01 0.00000E+00
 -1       921 5.33333E+00 4.57778E+01 5.00000E+00
 -1       922 1.06667E+01 4.75556E+01 5.00000E+00
 -1       923 1.60000E+01 4.93333E+01 5.00000E+00
 -1       924 2.13333E+01 5.11111E+01 5.00000E+00
 -1       925 2.66667E+01 5.28889E+01 5.00000E+00
 -1       926 3.20000E+01 5.46667E+01 5.00000E+00
 -1       927 3.73333E+01 5.64444E+01 5.00000E+00
 -1       928 4.26667E+01 5.82222E+01 5.00000E+00
 -1       929 0.00000E+00 6.28571E+00 0.00000E+00
 -1       930 0.00000E+00 1.25714E+01 0.00000E+00
 -1       931 0.00000E+00 1.88571E+01 0.00000E+00
 -1       932 0.00000E+00 2.51429E+01 0.00000E+00
 -1       933 0.00000E+00 3.14286E+01 0.00000E+00
 -1       934 0.00000E+00 3.77143E+01 0.00000E+00
 -1       935 0.00000E+00 6.28571E+00 5.00000E+00
 -1       936 0.00000E+00 1.25714E+01 5.00000E+00
 -1       937 0.00000E+00 1.88571E+01 5.00000E+00
 -1       938 0.00000E+00 2.51429E+01 5.00000E+00
 -1       939 0.00000E+00 3.14286E+01 5.00000E+00
 -1       940 0.00000E+00 3.77143E+01 5.00000E+00
 -1       941 4.25522E+01 4.64581E+01 0.00000E+00
 -1       942 3.35498E+01 3.77493E+01 0.00000E+00
 -1       943 2.51093E+01 2.99939E+01 0.00000E+00
 -1       944 1.62723E+01 2.24504E+01 0.00000E+00
 -1       945 8.24325E+00 1.41262E+01 0.00000E+00
 -1       946 3.73817E+00 1.53903E+01 0.00000E+00
 -1       947 5.14726E+00 2.78644E+01 0.00000E+00
 -1       948 4.69256E+00 4.00632E+01 0.00000E+00
 -1       949 1.51309E+01 4.32275E+01 0.00000E+00
 -1       950 2.58440E+01 4.70978E+01 0.00000E+00
 -1       951 3.71250E+01 5.02228E+01 0.00000E+00
 -1       952 4.23875E+00 9.99835E+00 0.00000E+00
 -1       953 4.25575E+01 5.24822E+01 0.00000E+00
 -1       954 3.69271E+01 4.31867E+01 0.00000E+00
 -1       955 2.95315E+01 3.34789E+01 0.00000E+00
 -1       956 2.06835E+01 2.63365E+01 0.00000E+00
 -1       957 1.19290E+01 1.84412E+01 0.00000E+00
 -1       958 5.82390E+00 2.08016E+01 0.00000E+00
 -1       959 4.62419E+00 3.40527E+01 0.00000E+00
 -1       960 9.92739E+00 4.17520E+01 0.00000E+00
 -1       961 2.03904E+01 4.52491E+01 0.00000E+00
 -1       962 3.15323E+01 4.85725E+01 0.00000E+00
 -1       963 1.97109E+01 3.27050E+01 0.00000E+00
 -1       964 1.06546E+01 2.49252E+01 0.00000E+00
 -1       965 9.87661E+00 3.13032E+01 0.00000E+00
 -1       966 2.46680E+01 4.15603E+01 0.00000E+00
 -1       967 3.03406E+01 4.29916E+01 0.00000E+00
 -1       968 2.43158E+01 3.57621E+01 0.00000E+00
 -1       969 2.85017E+01 3.83368E+01 0.00000E+00
 -1       970 1.95881E+01 3.90948E+01 0.00000E+00
 -1       971 8.78510E+00 3.66642E+01 0.00000E+00
 -1       972 1.52231E+01 2.89724E+01 0.00000E+00
 -1       973 1.42155E+01 3.62576E+01 0.00000E+00
 -1       974 8.52215E+00 1.37205E+01 5.00000E+00
 -1       975 1.62939E+01 2.22249E+01 5.00000E+00
 -1       976 2.50781E+01 2.98710E+01 5.00000E+00
 -1       977 3.33231E+01 3.82333E+01 5.00000E+00
 -1       978 4.26263E+01 4.62704E+01 5.00000E+00
 -1       979 4.24174E+01 5.23232E+01 5.00000E+00
 -1       980 3.07989E+01 4.96092E+01 5.00000E+00
 -1       981 2.09102E+01 4.49189E+01 5.00000E+00
 -1       982 1.00073E+01 4.16939E+01 5.00000E+00
 -1       983 4.71862E+00 4.00435E+01 5.00000E+00
 -1       984 4.94682E+00 2.79924E+01 5.00000E+00
 -1       985 4.10531E+00 1.59927E+01 5.00000E+00
 -1       986 4.28577E+00 1.00908E+01 5.00000E+00
 -1       987 1.25727E+01 1.78670E+01 5.00000E+00
 -1       988 2.06494E+01 2.61884E+01 5.00000E+00
 -1       989 2.92937E+01 3.40051E+01 5.00000E+00
 -1       990 3.78743E+01 4.24122E+01 5.00000E+00
 -1       991 3.65864E+01 4.94468E+01 5.00000E+00
 -1       992 2.62363E+01 4.70325E+01 5.00000E+00
 -1       993 1.53560E+01 4.30852E+01 5.00000E+00
 -1       994 4.60199E+00 3.40485E+01 5.00000E+00
 -1       995 4.47681E+00 2.20456E+01 5.00000E+00
 -1       996 3.19549E+01 4.43122E+01 5.00000E+00
 -1       997 1.96505E+01 3.24258E+01 5.00000E+00
 -1       998 2.00128E+01 3.88268E+01 5.00000E+00
 -1       999 2.66176E+01 4.04732E+01 5.00000E+00
 -1      1000 9.79752E+00 3.11260E+01 5.00000E+00
 -1      1001 8.81349E+00 3.65874E+01 5.00000E+00
 -1      1002 1.51030E+01 2.86694E+01 5.00000E+00
 -1      1003 2.41353E+01 3.52181E+01 5.00000E+00
 -1      1004 1.43033E+01 3.60900E+01 5.00000E+00
 -1      1005 1.02936E+01 2.42313E+01 5.00000E+00
 -1      1006 8.05268E+00 1.88652E+01 5.00000E+00
 -1      1007 4.54484E+01 4.65039E+01 2.48874E+00
 -1      1008 3.28025E+00 7.89106E+00 2.51083E+00
 -1      1009 2.05987E+00 4.71888E+00 2.50004E+00
 -1      1010 4.10915E+01 5.50709E+01 2.50981E+00
 -1      1011 4.48875E+01 5.56357E+01 2.50887E+00
 -1      1012 2.50425E+00 1.37339E+01 2.59297E+00
 -1      1013 3.83577E+01 3.93650E+01 2.52722E+00
 -1      1014 1.29933E+01 4.54197E+01 2.50384E+00
 -1      1015 2.87985E+00 4.17234E+01 2.49798E+00
 -1      1016 8.45418E+00 1.09211E+01 2.47266E+00
 -1      1017 3.11755E+01 3.17901E+01 2.53329E+00
 -1      1018 1.91390E+01 2.12434E+01 2.49140E+00
 -1      1019 2.45820E+00 2.34296E+01 2.46314E+00
 -1      1020 3.31962E+01 5.15829E+01 2.46183E+00
 -1      1021 4.27768E+01 4.31431E+01 2.49550E+00
 -1      1022 4.52046E+01 5.08385E+01 2.50611E+00
 -1      1023 2.36716E+01 4.90072E+01 2.52106E+00
 -1      1024 2.35648E+00 2.80590E+01 2.49071E+00
 -1      1025 1.56587E+01 1.83730E+01 2.45233E+00
 -1      1026 3.04673E+00 1.87734E+01 2.47454E+00
 -1      1027 3.43236E+01 3.51113E+01 2.51890E+00
 -1      1028 1.20938E+01 1.52372E+01 2.43144E+00
 -1      1029 2.76604E+01 2.88880E+01 2.50417E+00
 -1      1030 2.48094E+00 3.73372E+01 2.50197E+00
 -1      1031 2.33932E+01 2.50730E+01 2.49121E+00
 -1      1032 7.69925E+00 4.37580E+01 2.50218E+00
 -1      1033 1.82859E+01 4.71924E+01 2.51375E+00
 -1      1034 2.88869E+01 5.08098E+01 2.46403E+00
 -1      1035 3.71530E+01 5.32597E+01 2.50862E+00
 -1      1036 2.36068E+00 3.27171E+01 2.50586E+00
 -3
    3C                           455                                     1
 -1       632    3    0    1
 -2       991       990       996       954
 -1       633    3    0    1
 -2       988       976       956       997
 -1       634    3    0    1
 -2       949      1014      1033       915
 -1       635    3    0    1
 -2       954       990      1021       978
 -1       636    3    0    1
 -2       994      1036      1030       959
 -1       637    3    0    1
 -2       956       976       943       997
 -1       638    3    0    1
 -2       966       992       950       981
 -1       639    3    0    1
 -2       958      1019       931      1026
 -1       640    3    0    1
 -2       979       978       991       951
 -1       641    3    0    1
 -2       971       965      1001       959
 -1       642    3    0    1
 -2       954       978       941       951
 -1       643    3    0    1
 -2       956       997      1002       988
 -1       644    3    0    1
 -2       940       994      1036      1030
 -1       645    3    0    1
 -2      1012       931       937      1026
 -1       646    3    0    1
 -2      1001       959      1000       994
 -1       647    3    0    1
 -2      1002       997       972      1004
 -1       648    3    0    1
 -2      1005       944      1002       975
 -1       649    3    0    1
 -2       963      1003       998       997
 -1       650    3    0    1
 -2      1000       964      1002      1005
 -1       651    3    0    1
 -2       889      1021       941       954
 -1       652    3    0    1
 -2       889       890      1013       954
 -1       653    3    0    1
 -2      1013       890       889       899
 -1       654    3    0    1
 -2      1036       933       947      1024
 -1       655    3    0    1
 -2       956       943       963       997
 -1       656    3    0    1
 -2      1030      1036       934       959
 -1       657    3    0    1
 -2       985       986       936      1012
 -1       658    3    0    1
 -2       980      1020       926       991
 -1       659    3    0    1
 -2       995      1006       964      1005
 -1       660    3    0    1
 -2       994       984       947      1000
 -1       661    3    0    1
 -2       934      1036       933       959
 -1       662    3    0    1
 -2       999       992       966       981
 -1       663    3    0    1
 -2       998       981       966       970
 -1       664    3    0    1
 -2      1013       900       890       899
 -1       665    3    0    1
 -2       956       988      1002       944
 -1       666    3    0    1
 -2      1019       947      1024       984
 -1       667    3    0    1
 -2       959      1001      1000       965
 -1       668    3    0    1
 -2      1000      1002       972      1004
 -1       669    3    0    1
 -2      1001      1004      1000       965
 -1       670    3    0    1
 -2       921      1032       922       982
 -1       671    3    0    1
 -2       996       999       969       977
 -1       672    3    0    1
 -2       994      1000       947       959
 -1       673    3    0    1
 -2      1000      1004       972       965
 -1       674    3    0    1
 -2      1006       995       964       958
 -1       675    3    0    1
 -2      1016       945       896       897
 -1       676    3    0    1
 -2       992       996       962       980
 -1       677    3    0    1
 -2       994       959       947      1036
 -1       678    3    0    1
 -2       969       977       989       942
 -1       679    3    0    1
 -2       993       981       998       970
 -1       680    3    0    1
 -2       954       942       977       996
 -1       681    3    0    1
 -2       949       993       973       970
 -1       682    3    0    1
 -2       963       997       943      1003
 -1       683    3    0    1
 -2      1001       971       983       982
 -1       684    3    0    1
 -2       943       997       976      1003
 -1       685    3    0    1
 -2       989       955       969       942
 -1       686    3    0    1
 -2      1016       897       896       906
 -1       687    3    0    1
 -2       895       957      1028      1025
 -1       688    3    0    1
 -2       961       966       950       981
 -1       689    3    0    1
 -2       896       906       905      1028
 -1       690    3    0    1
 -2       892       902       901      1017
 -1       691    3    0    1
 -2      1036      1024       947       984
 -1       692    3    0    1
 -2      1001       971       973       965
 -1       693    3    0    1
 -2       936       930      1008       935
 -1       694    3    0    1
 -2       901      1027       900       891
 -1       695    3    0    1
 -2       973      1004      1001       965
 -1       696    3    0    1
 -2      1023       981      1033       961
 -1       697    3    0    1
 -2       986       945       985       974
 -1       698    3    0    1
 -2      1000       965       972       964
 -1       699    3    0    1
 -2       954       996       977       990
 -1       700    3    0    1
 -2       894      1018       944       895
 -1       701    3    0    1
 -2       957       945       896      1028
 -1       702    3    0    1
 -2       996       977       969       942
 -1       703    3    0    1
 -2       907       897      1016       906
 -1       704    3    0    1
 -2       921      1032       983      1015
 -1       705    3    0    1
 -2       950       966       967       992
 -1       706    3    0    1
 -2       996       992       962       967
 -1       707    3    0    1
 -2       967       999       996       992
 -1       708    3    0    1
 -2       956      1018      1031       988
 -1       709    3    0    1
 -2       940       939      1036       994
 -1       710    3    0    1
 -2       996       967       962       954
 -1       711    3    0    1
 -2       904       903       893      1031
 -1       712    3    0    1
 -2       972       997       963      1004
 -1       713    3    0    1
 -2       952       945      1016       897
 -1       714    3    0    1
 -2       895      1025      1028       905
 -1       715    3    0    1
 -2      1002       975       944       988
 -1       716    3    0    1
 -2       963       998      1004       997
 -1       717    3    0    1
 -2       945       986      1012       952
 -1       718    3    0    1
 -2       983       959      1001       994
 -1       719    3    0    1
 -2       931      1012       936       930
 -1       720    3    0    1
 -2       956       944      1002       972
 -1       721    3    0    1
 -2      1003       999       966       998
 -1       722    3    0    1
 -2       949       960       973       982
 -1       723    3    0    1
 -2       949       982       973       993
 -1       724    3    0    1
 -2       991       962       954       996
 -1       725    3    0    1
 -2       966       981       961       970
 -1       726    3    0    1
 -2       956       972      1002       997
 -1       727    3    0    1
 -2       989      1003       943       976
 -1       728    3    0    1
 -2       993       998      1004       970
 -1       729    3    0    1
 -2      1029      1031       903       976
 -1       730    3    0    1
 -2       951       962      1020       918
 -1       731    3    0    1
 -2       994       983      1030       940
 -1       732    3    0    1
 -2       983       971       960       982
 -1       733    3    0    1
 -2       922      1032       921       914
 -1       734    3    0    1
 -2      1000       964       972      1002
 -1       735    3    0    1
 -2      1003       998       966       968
 -1       736    3    0    1
 -2       924       923      1033       981
 -1       737    3    0    1
 -2       915      1014       922       914
 -1       738    3    0    1
 -2       992       980       962      1034
 -1       739    3    0    1
 -2       989       999       969      1003
 -1       740    3    0    1
 -2       890      1013      1027       900
 -1       741    3    0    1
 -2      1029       943      1031       976
 -1       742    3    0    1
 -2      1014       915       922       923
 -1       743    3    0    1
 -2      1031       943       956       976
 -1       744    3    0    1
 -2      1006       946      1026       958
 -1       745    3    0    1
 -2      1032      1014       922       982
 -1       746    3    0    1
 -2      1019       984      1024       938
 -1       747    3    0    1
 -2      1014      1032       922       914
 -1       748    3    0    1
 -2       932       931      1019       937
 -1       749    3    0    1
 -2       994       959      1030       983
 -1       750    3    0    1
 -2      1032       960       913       914
 -1       751    3    0    1
 -2       927       979       991      1035
 -1       752    3    0    1
 -2      1000       964       947       965
 -1       753    3    0    1
 -2       984       938      1019       995
 -1       754    3    0    1
 -2       913      1032       921      1015
 -1       755    3    0    1
 -2       923       993      1033       981
 -1       756    3    0    1
 -2       900      1027       901       977
 -1       757    3    0    1
 -2       958      1019       947       932
 -1       758    3    0    1
 -2       918      1020      1034       962
 -1       759    3    0    1
 -2       935       930      1008       929
 -1       760    3    0    1
 -2       892      1017       901       891
 -1       761    3    0    1
 -2       936       935      1008       986
 -1       762    3    0    1
 -2      1005       944       957       964
 -1       763    3    0    1
 -2       895       896      1028       957
 -1       764    3    0    1
 -2      1006       958      1026       995
 -1       765    3    0    1
 -2      1012      1026       937       985
 -1       766    3    0    1
 -2       983       960      1032       982
 -1       767    3    0    1
 -2       892       943       893      1029
 -1       768    3    0    1
 -2      1006       974      1028       987
 -1       769    3    0    1
 -2      1032       913       948      1015
 -1       770    3    0    1
 -2       984       995       964      1005
 -1       771    3    0    1
 -2       944       894       956      1018
 -1       772    3    0    1
 -2       957      1025       895       944
 -1       773    3    0    1
 -2       894      1018      1031       956
 -1       774    3    0    1
 -2       890       942      1013       954
 -1       775    3    0    1
 -2       913      1015       921       887
 -1       776    3    0    1
 -2       976       902      1029       989
 -1       777    3    0    1
 -2       958       945       957      1006
 -1       778    3    0    1
 -2       901       902       989      1017
 -1       779    3    0    1
 -2      1003       968       966       969
 -1       780    3    0    1
 -2      1032      1015       948       983
 -1       781    3    0    1
 -2       960       971       983       948
 -1       782    3    0    1
 -2      1019       938       932       937
 -1       783    3    0    1
 -2       892       893       903      1029
 -1       784    3    0    1
 -2       905      1018       894       895
 -1       785    3    0    1
 -2       894       956      1031       893
 -1       786    3    0    1
 -2       996       954       942       967
 -1       787    3    0    1
 -2       991       980       962       996
 -1       788    3    0    1
 -2       901       891      1017      1027
 -1       789    3    0    1
 -2       939       984      1024      1036
 -1       790    3    0    1
 -2       955       892      1029       943
 -1       791    3    0    1
 -2       991      1020       962       980
 -1       792    3    0    1
 -2       968       955       989       943
 -1       793    3    0    1
 -2       961       981       993       970
 -1       794    3    0    1
 -2      1023       992       924       981
 -1       795    3    0    1
 -2       983      1032       921       982
 -1       796    3    0    1
 -2       921      1032       913       914
 -1       797    3    0    1
 -2       945       952      1012       946
 -1       798    3    0    1
 -2       963       943       968      1003
 -1       799    3    0    1
 -2       994      1036       947       984
 -1       800    3    0    1
 -2       989       976       943      1029
 -1       801    3    0    1
 -2      1035       927       979      1010
 -1       802    3    0    1
 -2      1015       921       887       888
 -1       803    3    0    1
 -2       968       943       989      1003
 -1       804    3    0    1
 -2      1028       987       905      1025
 -1       805    3    0    1
 -2       984      1005       964      1000
 -1       806    3    0    1
 -2       973      1004       963       970
 -1       807    3    0    1
 -2      1034       962       950       917
 -1       808    3    0    1
 -2       968      1003       989       969
 -1       809    3    0    1
 -2       969       999       967       966
 -1       810    3    0    1
 -2       966       999       967       992
 -1       811    3    0    1
 -2      1006       987      1028       957
 -1       812    3    0    1
 -2       966       970       968       998
 -1       813    3    0    1
 -2       959       983      1001       971
 -1       814    3    0    1
 -2       931       958      1026       946
 -1       815    3    0    1
 -2       926      1020      1035       991
 -1       816    3    0    1
 -2       963       998       968       970
 -1       817    3    0    1
 -2       973       972       963      1004
 -1       818    3    0    1
 -2      1003       969       966       999
 -1       819    3    0    1
 -2       974      1016       907       986
 -1       820    3    0    1
 -2       984      1000       964       947
 -1       821    3    0    1
 -2      1004       998       963       970
 -1       822    3    0    1
 -2       962       991       954       951
 -1       823    3    0    1
 -2       892      1029       903       902
 -1       824    3    0    1
 -2       900       977       990      1013
 -1       825    3    0    1
 -2       931       946      1026      1012
 -1       826    3    0    1
 -2       996       942       969       967
 -1       827    3    0    1
 -2       957       975      1005       987
 -1       828    3    0    1
 -2       953       951      1035       919
 -1       829    3    0    1
 -2       893       943       956      1031
 -1       830    3    0    1
 -2      1005       975       957       944
 -1       831    3    0    1
 -2       944      1005      1002       964
 -1       832    3    0    1
 -2       973       982       960       971
 -1       833    3    0    1
 -2      1001       982       973       971
 -1       834    3    0    1
 -2      1028      1025       957       987
 -1       835    3    0    1
 -2       961       993       949       970
 -1       836    3    0    1
 -2       971       959       983       948
 -1       837    3    0    1
 -2      1019       932      1024       947
 -1       838    3    0    1
 -2      1016       945       952       986
 -1       839    3    0    1
 -2       993      1004       973       970
 -1       840    3    0    1
 -2       979       951       941       978
 -1       841    3    0    1
 -2       974       945      1016       986
 -1       842    3    0    1
 -2       926       991      1035       927
 -1       843    3    0    1
 -2       984       947       964       995
 -1       844    3    0    1
 -2      1006      1005       957       964
 -1       845    3    0    1
 -2      1002       964       972       944
 -1       846    3    0    1
 -2       958       964       947       995
 -1       847    3    0    1
 -2       958      1006       957       964
 -1       848    3    0    1
 -2       969       999       989       977
 -1       849    3    0    1
 -2      1012       986      1008       952
 -1       850    3    0    1
 -2       958      1019       932       931
 -1       851    3    0    1
 -2      1001      1004       973       982
 -1       852    3    0    1
 -2      1012       952      1008       930
 -1       853    3    0    1
 -2      1014      1033       915       923
 -1       854    3    0    1
 -2       946       945       958      1006
 -1       855    3    0    1
 -2       957      1005      1006       987
 -1       856    3    0    1
 -2       901      1017       989      1027
 -1       857    3    0    1
 -2       905       904       894      1018
 -1       858    3    0    1
 -2       897      1016      1008       907
 -1       859    3    0    1
 -2       946      1006       985       945
 -1       860    3    0    1
 -2       985      1006       974       945
 -1       861    3    0    1
 -2       895       905      1028       896
 -1       862    3    0    1
 -2       956       997       963       972
 -1       863    3    0    1
 -2       966       998       999       981
 -1       864    3    0    1
 -2       939       938      1024       984
 -1       865    3    0    1
 -2      1006       957      1028       945
 -1       866    3    0    1
 -2      1000       965       947       959
 -1       867    3    0    1
 -2      1028       906       905       987
 -1       868    3    0    1
 -2       989       977       901      1027
 -1       869    3    0    1
 -2       996       967       969       999
 -1       870    3    0    1
 -2       972      1004       973       965
 -1       871    3    0    1
 -2       922       982      1014       993
 -1       872    3    0    1
 -2       968       998       963      1003
 -1       873    3    0    1
 -2       982      1004       973       993
 -1       874    3    0    1
 -2       995      1019       958      1026
 -1       875    3    0    1
 -2       910       881       882      1007
 -1       876    3    0    1
 -2       904       903      1031       988
 -1       877    3    0    1
 -2       882       881       899      1021
 -1       878    3    0    1
 -2      1034       950       992      1023
 -1       879    3    0    1
 -2       941       910      1022      1007
 -1       880    3    0    1
 -2       889       881       941      1021
 -1       881    3    0    1
 -2       899       881       889      1021
 -1       882    3    0    1
 -2       992      1034       962       950
 -1       883    3    0    1
 -2      1023       924       992       925
 -1       884    3    0    1
 -2      1006       995      1026       985
 -1       885    3    0    1
 -2       986       907       908      1008
 -1       886    3    0    1
 -2       986       908       935      1008
 -1       887    3    0    1
 -2       898       908       907      1008
 -1       888    3    0    1
 -2       986      1016       907      1008
 -1       889    3    0    1
 -2       898       883       884      1009
 -1       890    3    0    1
 -2       898       884       908      1009
 -1       891    3    0    1
 -2       883       935       884      1009
 -1       892    3    0    1
 -2       883       929       935      1009
 -1       893    3    0    1
 -2       928      1011       885       886
 -1       894    3    0    1
 -2       928       920      1011      1010
 -1       895    3    0    1
 -2       920       928       927      1010
 -1       896    3    0    1
 -2       909       885       920      1011
 -1       897    3    0    1
 -2       909       920       953      1011
 -1       898    3    0    1
 -2       909       911       885      1011
 -1       899    3    0    1
 -2       979       928      1011      1010
 -1       900    3    0    1
 -2       979       911       912      1022
 -1       901    3    0    1
 -2       912       911       909      1022
 -1       902    3    0    1
 -2       910       912       909      1022
 -1       903    3    0    1
 -2       940       887       888      1015
 -1       904    3    0    1
 -2       940       934       887      1015
 -1       905    3    0    1
 -2       948       887       934      1015
 -1       906    3    0    1
 -2       915       923      1033       916
 -1       907    3    0    1
 -2      1033       923       924       916
 -1       908    3    0    1
 -2       948      1015      1030       983
 -1       909    3    0    1
 -2      1023       961      1033       916
 -1       910    3    0    1
 -2       917       924       916      1023
 -1       911    3    0    1
 -2       917       924      1023       925
 -1       912    3    0    1
 -2       926      1020      1034       918
 -1       913    3    0    1
 -2      1023       950       917      1034
 -1       914    3    0    1
 -2       918       962      1034       917
 -1       915    3    0    1
 -2      1023      1034       917       925
 -1       916    3    0    1
 -2      1035       918       927       919
 -1       917    3    0    1
 -2       940      1030      1015       983
 -1       918    3    0    1
 -2       953       919      1035      1010
 -1       919    3    0    1
 -2       919       927      1010       920
 -1       920    3    0    1
 -2       979       927       928      1010
 -1       921    3    0    1
 -2      1035       927      1010       919
 -1       922    3    0    1
 -2       948      1030       959       983