
 displacements (vx,vy,vz) for set VERTEX and time  0.1000000E+01

       886 -2.132804E+01  2.977748E+01  0.000000E+00
