
 displacements (vx,vy,vz) for set VERTEX and time  0.1000000E+01

     20412 -2.396288E+01  3.226662E+01  0.000000E+00
