
 displacements (vx,vy,vz) for set VERTEX and time  0.1000000E+01

       886 -4.526434E+00  1.179162E+01  0.000000E+00
