
 displacements (vx,vy,vz) for set VERTEX and time  0.1000000E+01

       385 -2.328444E+01  3.170224E+01  0.000000E+00
