
 displacements (vx,vy,vz) for set VERTEX and time  0.1000000E+01

       230 -2.311637E+01  3.134095E+01  0.000000E+00
