    1C
    1UHash: PXJD0WWr, Date: 03/11/2021, Unit system: MM_TON_S_C         
    1UUSER                                                              
    1UDATE              11.march.2021                                   
    1UTIME              20:37:25                                        
    1UHOST                                                              
    1UPGM               CalculiX                                        
    1UVERSION           Version 2.10                             
    1UCOMPILETIME       Sa 5. Mär 12:23:33 CET 2016                    
    1UDIR                                                               
    1UDBN                                                               
    1UMAT    1RUBBER                                                    
    2C                           155                                     1
 -1       225 4.80000E+01 4.40000E+01 0.00000E+00
 -1       226 4.80000E+01 4.40000E+01 5.00000E+00
 -1       227 0.00000E+00 0.00000E+00 0.00000E+00
 -1       228 0.00000E+00 0.00000E+00 5.00000E+00
 -1       229 4.80000E+01 6.00000E+01 0.00000E+00
 -1       230 4.80000E+01 6.00000E+01 5.00000E+00
 -1       231 0.00000E+00 4.40000E+01 0.00000E+00
 -1       232 0.00000E+00 4.40000E+01 5.00000E+00
 -1       233 3.60000E+01 3.30000E+01 0.00000E+00
 -1       234 2.40000E+01 2.20000E+01 0.00000E+00
 -1       235 1.20000E+01 1.10000E+01 0.00000E+00
 -1       236 3.60000E+01 3.30000E+01 5.00000E+00
 -1       237 2.40000E+01 2.20000E+01 5.00000E+00
 -1       238 1.20000E+01 1.10000E+01 5.00000E+00
 -1       239 4.80000E+01 5.60000E+01 0.00000E+00
 -1       240 4.80000E+01 5.20000E+01 0.00000E+00
 -1       241 4.80000E+01 4.80000E+01 0.00000E+00
 -1       242 4.80000E+01 5.60000E+01 5.00000E+00
 -1       243 4.80000E+01 5.20000E+01 5.00000E+00
 -1       244 4.80000E+01 4.80000E+01 5.00000E+00
 -1       245 1.20000E+01 4.80000E+01 0.00000E+00
 -1       246 2.40000E+01 5.20000E+01 0.00000E+00
 -1       247 3.60000E+01 5.60000E+01 0.00000E+00
 -1       248 1.20000E+01 4.80000E+01 5.00000E+00
 -1       249 2.40000E+01 5.20000E+01 5.00000E+00
 -1       250 3.60000E+01 5.60000E+01 5.00000E+00
 -1       251 0.00000E+00 1.10000E+01 0.00000E+00
 -1       252 0.00000E+00 2.20000E+01 0.00000E+00
 -1       253 0.00000E+00 3.30000E+01 0.00000E+00
 -1       254 0.00000E+00 1.10000E+01 5.00000E+00
 -1       255 0.00000E+00 2.20000E+01 5.00000E+00
 -1       256 0.00000E+00 3.30000E+01 5.00000E+00
 -1       257 3.60000E+01 3.87500E+01 0.00000E+00
 -1       258 3.60000E+01 4.45000E+01 0.00000E+00
 -1       259 3.60000E+01 5.02500E+01 0.00000E+00
 -1       260 2.40000E+01 2.95000E+01 0.00000E+00
 -1       261 2.40000E+01 3.70000E+01 0.00000E+00
 -1       262 2.40000E+01 4.45000E+01 0.00000E+00
 -1       263 1.20000E+01 2.02500E+01 0.00000E+00
 -1       264 1.20000E+01 2.95000E+01 0.00000E+00
 -1       265 1.20000E+01 3.87500E+01 0.00000E+00
 -1       266 1.20000E+01 2.02500E+01 5.00000E+00
 -1       267 1.20000E+01 2.95000E+01 5.00000E+00
 -1       268 1.20000E+01 3.87500E+01 5.00000E+00
 -1       269 2.40000E+01 2.95000E+01 5.00000E+00
 -1       270 2.40000E+01 3.70000E+01 5.00000E+00
 -1       271 2.40000E+01 4.45000E+01 5.00000E+00
 -1       272 3.60000E+01 3.87500E+01 5.00000E+00
 -1       273 3.60000E+01 4.45000E+01 5.00000E+00
 -1       274 3.60000E+01 5.02500E+01 5.00000E+00
 -1       275 4.80000E+01 4.40000E+01 2.50000E+00
 -1       276 0.00000E+00 0.00000E+00 2.50000E+00
 -1       277 4.20000E+01 3.85000E+01 0.00000E+00
 -1       278 3.00000E+01 2.75000E+01 0.00000E+00
 -1       279 1.80000E+01 1.65000E+01 0.00000E+00
 -1       280 6.00000E+00 5.50000E+00 0.00000E+00
 -1       281 4.20000E+01 3.85000E+01 5.00000E+00
 -1       282 3.00000E+01 2.75000E+01 5.00000E+00
 -1       283 1.80000E+01 1.65000E+01 5.00000E+00
 -1       284 6.00000E+00 5.50000E+00 5.00000E+00
 -1       285 4.80000E+01 6.00000E+01 2.50000E+00
 -1       286 4.80000E+01 5.80000E+01 0.00000E+00
 -1       287 4.80000E+01 5.40000E+01 0.00000E+00
 -1       288 4.80000E+01 5.00000E+01 0.00000E+00
 -1       289 4.80000E+01 4.60000E+01 0.00000E+00
 -1       290 4.80000E+01 5.80000E+01 5.00000E+00
 -1       291 4.80000E+01 5.40000E+01 5.00000E+00
 -1       292 4.80000E+01 5.00000E+01 5.00000E+00
 -1       293 4.80000E+01 4.60000E+01 5.00000E+00
 -1       294 0.00000E+00 4.40000E+01 2.50000E+00
 -1       295 6.00000E+00 4.60000E+01 0.00000E+00
 -1       296 1.80000E+01 5.00000E+01 0.00000E+00
 -1       297 3.00000E+01 5.40000E+01 0.00000E+00
 -1       298 4.20000E+01 5.80000E+01 0.00000E+00
 -1       299 6.00000E+00 4.60000E+01 5.00000E+00
 -1       300 1.80000E+01 5.00000E+01 5.00000E+00
 -1       301 3.00000E+01 5.40000E+01 5.00000E+00
 -1       302 4.20000E+01 5.80000E+01 5.00000E+00
 -1       303 0.00000E+00 5.50000E+00 0.00000E+00
 -1       304 0.00000E+00 1.65000E+01 0.00000E+00
 -1       305 0.00000E+00 2.75000E+01 0.00000E+00
 -1       306 0.00000E+00 3.85000E+01 0.00000E+00
 -1       307 0.00000E+00 5.50000E+00 5.00000E+00
 -1       308 0.00000E+00 1.65000E+01 5.00000E+00
 -1       309 0.00000E+00 2.75000E+01 5.00000E+00
 -1       310 0.00000E+00 3.85000E+01 5.00000E+00
 -1       311 3.60000E+01 3.30000E+01 2.50000E+00
 -1       312 2.40000E+01 2.20000E+01 2.50000E+00
 -1       313 1.20000E+01 1.10000E+01 2.50000E+00
 -1       314 4.80000E+01 5.60000E+01 2.50000E+00
 -1       315 4.80000E+01 5.20000E+01 2.50000E+00
 -1       316 4.80000E+01 4.80000E+01 2.50000E+00
 -1       317 1.20000E+01 4.80000E+01 2.50000E+00
 -1       318 2.40000E+01 5.20000E+01 2.50000E+00
 -1       319 3.60000E+01 5.60000E+01 2.50000E+00
 -1       320 0.00000E+00 1.10000E+01 2.50000E+00
 -1       321 0.00000E+00 2.20000E+01 2.50000E+00
 -1       322 0.00000E+00 3.30000E+01 2.50000E+00
 -1       323 3.60000E+01 3.58750E+01 0.00000E+00
 -1       324 4.20000E+01 4.33750E+01 0.00000E+00
 -1       325 3.60000E+01 4.16250E+01 0.00000E+00
 -1       326 4.20000E+01 4.82500E+01 0.00000E+00
 -1       327 3.60000E+01 4.73750E+01 0.00000E+00
 -1       328 4.20000E+01 5.31250E+01 0.00000E+00
 -1       329 3.60000E+01 5.31250E+01 0.00000E+00
 -1       330 2.40000E+01 2.57500E+01 0.00000E+00
 -1       331 3.00000E+01 3.41250E+01 0.00000E+00
 -1       332 2.40000E+01 3.32500E+01 0.00000E+00
 -1       333 3.00000E+01 4.07500E+01 0.00000E+00
 -1       334 2.40000E+01 4.07500E+01 0.00000E+00
 -1       335 3.00000E+01 4.73750E+01 0.00000E+00
 -1       336 2.40000E+01 4.82500E+01 0.00000E+00
 -1       337 1.20000E+01 1.56250E+01 0.00000E+00
 -1       338 1.80000E+01 2.48750E+01 0.00000E+00
 -1       339 1.20000E+01 2.48750E+01 0.00000E+00
 -1       340 1.80000E+01 3.32500E+01 0.00000E+00
 -1       341 1.20000E+01 3.41250E+01 0.00000E+00
 -1       342 1.80000E+01 4.16250E+01 0.00000E+00
 -1       343 1.20000E+01 4.33750E+01 0.00000E+00
 -1       344 6.00000E+00 1.56250E+01 0.00000E+00
 -1       345 6.00000E+00 2.57500E+01 0.00000E+00
 -1       346 6.00000E+00 3.58750E+01 0.00000E+00
 -1       347 1.20000E+01 1.56250E+01 5.00000E+00
 -1       348 6.00000E+00 1.56250E+01 5.00000E+00
 -1       349 1.20000E+01 2.48750E+01 5.00000E+00
 -1       350 6.00000E+00 2.57500E+01 5.00000E+00
 -1       351 1.20000E+01 3.41250E+01 5.00000E+00
 -1       352 6.00000E+00 3.58750E+01 5.00000E+00
 -1       353 1.20000E+01 4.33750E+01 5.00000E+00
 -1       354 2.40000E+01 2.57500E+01 5.00000E+00
 -1       355 1.80000E+01 2.48750E+01 5.00000E+00
 -1       356 2.40000E+01 3.32500E+01 5.00000E+00
 -1       357 1.80000E+01 3.32500E+01 5.00000E+00
 -1       358 2.40000E+01 4.07500E+01 5.00000E+00
 -1       359 1.80000E+01 4.16250E+01 5.00000E+00
 -1       360 2.40000E+01 4.82500E+01 5.00000E+00
 -1       361 3.60000E+01 3.58750E+01 5.00000E+00
 -1       362 3.00000E+01 3.41250E+01 5.00000E+00
 -1       363 3.60000E+01 4.16250E+01 5.00000E+00
 -1       364 3.00000E+01 4.07500E+01 5.00000E+00
 -1       365 3.60000E+01 4.73750E+01 5.00000E+00
 -1       366 3.00000E+01 4.73750E+01 5.00000E+00
 -1       367 3.60000E+01 5.31250E+01 5.00000E+00
 -1       368 4.20000E+01 4.33750E+01 5.00000E+00
 -1       369 4.20000E+01 4.82500E+01 5.00000E+00
 -1       370 4.20000E+01 5.31250E+01 5.00000E+00
 -1       371 3.60000E+01 3.87500E+01 2.50000E+00
 -1       372 3.60000E+01 4.45000E+01 2.50000E+00
 -1       373 3.60000E+01 5.02500E+01 2.50000E+00
 -1       374 2.40000E+01 2.95000E+01 2.50000E+00
 -1       375 2.40000E+01 3.70000E+01 2.50000E+00
 -1       376 2.40000E+01 4.45000E+01 2.50000E+00
 -1       377 1.20000E+01 2.02500E+01 2.50000E+00
 -1       378 1.20000E+01 2.95000E+01 2.50000E+00
 -1       379 1.20000E+01 3.87500E+01 2.50000E+00
 -3
    3C                            16                                     1
 -1       379    4    0    1
 -2       226       225       233       236       244       241       257       272       275       277
 -2       311       281       293       289       323       361       316       324       371       368
 -1       380    4    0    1
 -2       244       241       257       272       243       240       258       273       316       324
 -2       371       368       292       288       325       363       315       326       372       369
 -1       381    4    0    1
 -2       243       240       258       273       242       239       259       274       315       326
 -2       372       369       291       287       327       365       314       328       373       370
 -1       382    4    0    1
 -2       242       239       259       274       230       229       247       250       314       328
 -2       373       370       290       286       329       367       285       298       319       302
 -1       383    4    0    1
 -2       236       233       234       237       272       257       260       269       311       278
 -2       312       282       361       323       330       354       371       331       374       362
 -1       384    4    0    1
 -2       272       257       260       269       273       258       261       270       371       331
 -2       374       362       363       325       332       356       372       333       375       364
 -1       385    4    0    1
 -2       273       258       261       270       274       259       262       271       372       333
 -2       375       364       365       327       334       358       373       335       376       366
 -1       386    4    0    1
 -2       274       259       262       271       250       247       246       249       373       335
 -2       376       366       367       329       336       360       319       297       318       301
 -1       387    4    0    1
 -2       237       234       235       238       269       260       263       266       312       279
 -2       313       283       354       330       337       347       374       338       377       355
 -1       388    4    0    1
 -2       269       260       263       266       270       261       264       267       374       338
 -2       377       355       356       332       339       349       375       340       378       357
 -1       389    4    0    1
 -2       270       261       264       267       271       262       265       268       375       340
 -2       378       357       358       334       341       351       376       342       379       359
 -1       390    4    0    1
 -2       271       262       265       268       249       246       245       248       376       342
 -2       379       359       360       336       343       353       318       296       317       300
 -1       391    4    0    1
 -2       238       235       227       228       266       263       251       254       313       280
 -2       276       284       347       337       303       307       377       344       320       348
 -1       392    4    0    1
 -2       266       263       251       254       267       264       252       255       377       344
 -2       320       348       349       339       304       308       378       345       321       350
 -1       393    4    0    1
 -2       267       264       252       255       268       265       253       256       378       345
 -2       321       350       351       341       305       309       379       346       322       352
 -1       394    4    0    1
 -2       268       265       253       256       248       245       231       232       379       346
 -2       322       352       353       343       306       310       317       295       294       299
 -3
    1PSTEP                         1           1           1          
  100CL  101 1.000000000         155                     0    1           1
 -4  DISP        4    1
 -5  D1          1    2    1    0
 -5  D2          1    2    2    0
 -5  D3          1    2    3    0
 -5  ALL         1    2    0    0    1ALL
 -1       225-5.81783E+00 2.92350E+01 0.00000E+00
 -1       226-5.81783E+00 2.92350E+01 0.00000E+00
 -1       227 0.00000E+00 0.00000E+00 0.00000E+00
 -1       228 0.00000E+00 0.00000E+00 0.00000E+00
 -1       229-2.31164E+01 3.13410E+01 0.00000E+00
 -1       230-2.31164E+01 3.13410E+01 0.00000E+00
 -1       231 0.00000E+00 0.00000E+00 0.00000E+00
 -1       232 0.00000E+00 0.00000E+00 0.00000E+00
 -1       233 9.58613E-01 1.53891E+01 0.00000E+00
 -1       234 2.18373E+00 6.37628E+00 0.00000E+00
 -1       235 8.62577E-01 2.09007E+00 0.00000E+00
 -1       236 9.58613E-01 1.53891E+01 0.00000E+00
 -1       237 2.18373E+00 6.37628E+00 0.00000E+00
 -1       238 8.62577E-01 2.09007E+00 0.00000E+00
 -1       239-1.77860E+01 3.09510E+01 0.00000E+00
 -1       240-1.34273E+01 3.02899E+01 0.00000E+00
 -1       241-9.58906E+00 2.96487E+01 0.00000E+00
 -1       242-1.77860E+01 3.09510E+01 0.00000E+00
 -1       243-1.34273E+01 3.02899E+01 0.00000E+00
 -1       244-9.58906E+00 2.96487E+01 0.00000E+00
 -1       245-5.12695E+00 2.44253E+00 0.00000E+00
 -1       246-1.04829E+01 7.70907E+00 0.00000E+00
 -1       247-1.65991E+01 1.69034E+01 0.00000E+00
 -1       248-5.12695E+00 2.44253E+00 0.00000E+00
 -1       249-1.04829E+01 7.70907E+00 0.00000E+00
 -1       250-1.65991E+01 1.69034E+01 0.00000E+00
 -1       251 0.00000E+00 0.00000E+00 0.00000E+00
 -1       252 0.00000E+00 0.00000E+00 0.00000E+00
 -1       253 0.00000E+00 0.00000E+00 0.00000E+00
 -1       254 0.00000E+00 0.00000E+00 0.00000E+00
 -1       255 0.00000E+00 0.00000E+00 0.00000E+00
 -1       256 0.00000E+00 0.00000E+00 0.00000E+00
 -1       257-2.08832E+00 1.57314E+01 0.00000E+00
 -1       258-6.06473E+00 1.61188E+01 0.00000E+00
 -1       259-1.08462E+01 1.65182E+01 0.00000E+00
 -1       260 1.14060E+00 6.62835E+00 0.00000E+00
 -1       261-1.34524E+00 6.81997E+00 0.00000E+00
 -1       262-5.21253E+00 7.17230E+00 0.00000E+00
 -1       263 1.10852E+00 2.06140E+00 0.00000E+00
 -1       264 4.30757E-01 1.79617E+00 0.00000E+00
 -1       265-1.47601E+00 1.83626E+00 0.00000E+00
 -1       266 1.10852E+00 2.06140E+00 0.00000E+00
 -1       267 4.30757E-01 1.79617E+00 0.00000E+00
 -1       268-1.47601E+00 1.83626E+00 0.00000E+00
 -1       269 1.14060E+00 6.62835E+00 0.00000E+00
 -1       270-1.34524E+00 6.81997E+00 0.00000E+00
 -1       271-5.21253E+00 7.17230E+00 0.00000E+00
 -1       272-2.08832E+00 1.57314E+01 0.00000E+00
 -1       273-6.06473E+00 1.61188E+01 0.00000E+00
 -1       274-1.08462E+01 1.65182E+01 0.00000E+00
 -1       275-5.81783E+00 2.92350E+01-3.55271E-15
 -1       276 0.00000E+00 0.00000E+00 0.00000E+00
 -1       277-1.56315E+00 2.18487E+01 0.00000E+00
 -1       278 2.12252E+00 1.02191E+01 0.00000E+00
 -1       279 1.63928E+00 3.72004E+00 0.00000E+00
 -1       280 2.97827E-01 9.39915E-01 0.00000E+00
 -1       281-1.56315E+00 2.18487E+01 0.00000E+00
 -1       282 2.12252E+00 1.02191E+01 0.00000E+00
 -1       283 1.63928E+00 3.72004E+00 0.00000E+00
 -1       284 2.97827E-01 9.39915E-01 0.00000E+00
 -1       285-2.31164E+01 3.13410E+01 6.89323E-15
 -1       286-2.02857E+01 3.12007E+01 0.00000E+00
 -1       287-1.55183E+01 3.06359E+01 0.00000E+00
 -1       288-1.14848E+01 2.99601E+01 0.00000E+00
 -1       289-7.72964E+00 2.93951E+01 0.00000E+00
 -1       290-2.02857E+01 3.12007E+01 0.00000E+00
 -1       291-1.55183E+01 3.06359E+01 0.00000E+00
 -1       292-1.14848E+01 2.99601E+01 0.00000E+00
 -1       293-7.72964E+00 2.93951E+01 0.00000E+00
 -1       294 0.00000E+00 0.00000E+00 0.00000E+00
 -1       295-2.42282E+00 9.84910E-01 0.00000E+00
 -1       296-7.75874E+00 4.67267E+00 0.00000E+00
 -1       297-1.34516E+01 1.17473E+01 0.00000E+00
 -1       298-1.98722E+01 2.32145E+01 0.00000E+00
 -1       299-2.42282E+00 9.84910E-01 0.00000E+00
 -1       300-7.75874E+00 4.67267E+00 0.00000E+00
 -1       301-1.34516E+01 1.17473E+01 0.00000E+00
 -1       302-1.98722E+01 2.32145E+01 0.00000E+00
 -1       303 0.00000E+00 0.00000E+00 0.00000E+00
 -1       304 0.00000E+00 0.00000E+00 0.00000E+00
 -1       305 0.00000E+00 0.00000E+00 0.00000E+00
 -1       306 0.00000E+00 0.00000E+00 0.00000E+00
 -1       307 0.00000E+00 0.00000E+00 0.00000E+00
 -1       308 0.00000E+00 0.00000E+00 0.00000E+00
 -1       309 0.00000E+00 0.00000E+00 0.00000E+00
 -1       310 0.00000E+00 0.00000E+00 0.00000E+00
 -1       311 9.58613E-01 1.53891E+01 7.96634E-15
 -1       312 2.18373E+00 6.37628E+00-8.17060E-16
 -1       313 8.62577E-01 2.09007E+00 4.24372E-16
 -1       314-1.77860E+01 3.09510E+01-7.54952E-15
 -1       315-1.34273E+01 3.02899E+01-3.02189E-15
 -1       316-9.58906E+00 2.96487E+01 1.24345E-14
 -1       317-5.12695E+00 2.44253E+00 7.09888E-16
 -1       318-1.04829E+01 7.70907E+00-1.19853E-15
 -1       319-1.65991E+01 1.69034E+01 1.77636E-15
 -1       320 0.00000E+00 0.00000E+00 0.00000E+00
 -1       321 0.00000E+00 0.00000E+00 0.00000E+00
 -1       322 0.00000E+00 0.00000E+00 0.00000E+00
 -1       323-4.24810E-01 1.55620E+01 0.00000E+00
 -1       324-5.30600E+00 2.21667E+01 0.00000E+00
 -1       325-3.97865E+00 1.59225E+01 0.00000E+00
 -1       326-9.44884E+00 2.25942E+01 0.00000E+00
 -1       327-8.35028E+00 1.63263E+01 0.00000E+00
 -1       328-1.41581E+01 2.29714E+01 0.00000E+00
 -1       329-1.35833E+01 1.66961E+01 0.00000E+00
 -1       330 1.85441E+00 6.52821E+00 0.00000E+00
 -1       331 2.28991E-02 1.05642E+01 0.00000E+00
 -1       332 8.32832E-02 6.71029E+00 0.00000E+00
 -1       333-3.33758E+00 1.08924E+01 0.00000E+00
 -1       334-3.10734E+00 6.97178E+00 0.00000E+00
 -1       335-7.83773E+00 1.12845E+01 0.00000E+00
 -1       336-7.70403E+00 7.43751E+00 0.00000E+00
 -1       337 1.08820E+00 2.15372E+00 0.00000E+00
 -1       338 1.42220E+00 3.86865E+00 0.00000E+00
 -1       339 9.01935E-01 1.93734E+00 0.00000E+00
 -1       340-9.93537E-02 3.85170E+00 0.00000E+00
 -1       341-3.25659E-01 1.74351E+00 0.00000E+00
 -1       342-3.06220E+00 4.05540E+00 0.00000E+00
 -1       343-2.92766E+00 2.00286E+00 0.00000E+00
 -1       344 5.26627E-01 9.56699E-01 0.00000E+00
 -1       345 3.47661E-01 6.25345E-01 0.00000E+00
 -1       346-3.84021E-01 3.71071E-01 0.00000E+00
 -1       347 1.08820E+00 2.15372E+00 0.00000E+00
 -1       348 5.26627E-01 9.56699E-01 0.00000E+00
 -1       349 9.01935E-01 1.93734E+00 0.00000E+00
 -1       350 3.47661E-01 6.25345E-01 0.00000E+00
 -1       351-3.25659E-01 1.74351E+00 0.00000E+00
 -1       352-3.84021E-01 3.71071E-01 0.00000E+00
 -1       353-2.92766E+00 2.00286E+00 0.00000E+00
 -1       354 1.85441E+00 6.52821E+00 0.00000E+00
 -1       355 1.42220E+00 3.86865E+00 0.00000E+00
 -1       356 8.32832E-02 6.71029E+00 0.00000E+00
 -1       357-9.93537E-02 3.85170E+00 0.00000E+00
 -1       358-3.10734E+00 6.97178E+00 0.00000E+00
 -1       359-3.06220E+00 4.05540E+00 0.00000E+00
 -1       360-7.70403E+00 7.43751E+00 0.00000E+00
 -1       361-4.24810E-01 1.55620E+01 0.00000E+00
 -1       362 2.28991E-02 1.05642E+01 0.00000E+00
 -1       363-3.97865E+00 1.59225E+01 0.00000E+00
 -1       364-3.33758E+00 1.08924E+01 0.00000E+00
 -1       365-8.35028E+00 1.63263E+01 0.00000E+00
 -1       366-7.83773E+00 1.12845E+01 0.00000E+00
 -1       367-1.35833E+01 1.66961E+01 0.00000E+00
 -1       368-5.30600E+00 2.21667E+01 0.00000E+00
 -1       369-9.44884E+00 2.25942E+01 0.00000E+00
 -1       370-1.41581E+01 2.29714E+01 0.00000E+00
 -1       371-2.08832E+00 1.57314E+01-6.20782E-15
 -1       372-6.06473E+00 1.61188E+01-3.81018E-15
 -1       373-1.08462E+01 1.65182E+01 5.77316E-15
 -1       374 1.14060E+00 6.62835E+00 2.35878E-15
 -1       375-1.34524E+00 6.81997E+00-3.35100E-16
 -1       376-5.21253E+00 7.17230E+00-1.13941E-15
 -1       377 1.10852E+00 2.06140E+00-3.58296E-16
 -1       378 4.30757E-01 1.79617E+00-1.06852E-16
 -1       379-1.47601E+00 1.83626E+00 1.83688E-16
 -3
    1PSTEP                         2           1           1          
  100CL  101 1.000000000         155                     0    1           1
 -4  STRESS      6    1
 -5  SXX         1    4    1    1
 -5  SYY         1    4    2    2
 -5  SZZ         1    4    3    3
 -5  SXY         1    4    1    2
 -5  SYZ         1    4    2    3
 -5  SZX         1    4    3    1
 -1       225 6.58095E+00 7.61119E+00 4.68341E+00 7.53664E+00 9.43156E-13-6.47490E-13
 -1       226 6.58095E+00 7.61119E+00 4.68341E+00 7.53664E+00-1.47399E-12 1.26072E-12
 -1       227 2.86553E+00 1.40701E+00 1.40994E+00 3.65735E+00 2.06232E-15 1.19484E-15
 -1       228 2.86553E+00 1.40701E+00 1.40994E+00 3.65735E+00-4.83748E-16 6.74677E-16
 -1       229-1.95733E+00 2.21115E+00 8.37588E-02-1.48924E-01 5.05807E-13 1.22868E-12
 -1       230-1.95733E+00 2.21115E+00 8.37588E-02-1.48924E-01 4.75962E-13 3.02879E-13
 -1       231-3.94675E+01-1.95025E+01-1.94601E+01 3.28603E+00-9.92358E-15 1.67602E-14
 -1       232-3.94675E+01-1.95025E+01-1.94601E+01 3.28603E+00 3.91071E-15 9.84679E-15
 -1       233 1.49917E+01 1.21994E+01 8.97306E+00 1.31108E+01 2.49202E-13 5.84531E-13
 -1       234 1.38151E+01 1.05243E+01 8.03201E+00 1.18229E+01 1.77424E-13-6.54959E-14
 -1       235 8.60777E+00 6.64266E+00 5.03264E+00 6.32196E+00-1.60634E-14 7.81636E-15
 -1       236 1.49917E+01 1.21994E+01 8.97306E+00 1.31108E+01 1.44335E-12-3.41157E-13
 -1       237 1.38151E+01 1.05243E+01 8.03201E+00 1.18229E+01-2.92612E-14 4.88016E-15
 -1       238 8.60777E+00 6.64266E+00 5.03264E+00 6.32196E+00 1.13428E-13 1.17337E-14
 -1       239 4.20890E-01 1.18109E+01 4.03649E+00 5.61060E+00-1.60327E-12-1.60273E-14
 -1       240-7.07033E-01 1.31762E+01 4.11482E+00 7.44860E+00-3.90733E-13 8.75619E-13
 -1       241-1.39033E+00 1.09937E+01 3.16911E+00 7.64295E+00-3.01581E-13-5.36895E-13
 -1       242 4.20890E-01 1.18109E+01 4.03649E+00 5.61060E+00 5.34302E-13-1.45074E-12
 -1       243-7.07033E-01 1.31762E+01 4.11482E+00 7.44860E+00 8.12211E-13-2.27483E-13
 -1       244-1.39033E+00 1.09937E+01 3.16911E+00 7.64295E+00 4.57743E-13 5.49692E-13
 -1       245-2.13284E+01-6.92954E-01-7.26704E+00-8.00515E+00 3.96118E-14 1.51745E-13
 -1       246-1.81204E+01-3.15490E+00-7.02084E+00-5.99300E+00-1.34782E-13 8.58098E-14
 -1       247-1.44587E+01-9.92037E-01-5.09875E+00-5.17577E+00-8.84138E-13-3.47060E-13
 -1       248-2.13284E+01-6.92954E-01-7.26704E+00-8.00515E+00 2.16696E-14-1.89162E-13
 -1       249-1.81204E+01-3.15490E+00-7.02084E+00-5.99300E+00 1.60953E-13-2.09262E-13
 -1       250-1.44587E+01-9.92037E-01-5.09875E+00-5.17577E+00 2.05793E-13-6.97335E-13
 -1       251 8.67754E+00 4.29136E+00 4.27974E+00 3.85581E+00-3.40902E-17-1.33271E-15
 -1       252 8.39013E+00 4.18753E+00 4.15063E+00 1.51419E+00-1.95084E-15 8.90360E-16
 -1       253-4.87279E-01-2.42264E-01-2.40749E-01-7.82704E-01-1.36332E-15-5.00657E-15
 -1       254 8.67754E+00 4.29136E+00 4.27974E+00 3.85581E+00 3.76081E-15 1.69329E-15
 -1       255 8.39013E+00 4.18753E+00 4.15063E+00 1.51419E+00 4.90767E-15-1.13034E-15
 -1       256-4.87279E-01-2.42264E-01-2.40749E-01-7.82704E-01 3.70925E-15 3.09497E-15
 -1       257 7.33963E+00 8.54148E+00 5.24077E+00 7.94983E+00 6.60500E-13 2.11200E-14
 -1       258-5.25918E-01 5.48534E+00 1.63661E+00 4.42533E+00-3.08637E-15 7.11815E-14
 -1       259-6.84074E+00 1.46896E+00-1.77269E+00 6.20412E-01 1.24825E-13 1.65890E-13
 -1       260 9.51822E+00 6.17321E+00 5.17817E+00 7.76399E+00 1.06826E-14 5.12414E-14
 -1       261 1.47374E+00 3.34894E+00 1.59149E+00 3.39200E+00 8.37151E-14 7.24820E-14
 -1       262-8.10174E+00 1.10773E+00-2.30802E+00-1.43490E+00-7.75601E-14 3.39509E-13
 -1       263 1.03439E+01 2.65609E+00 4.29000E+00 5.68173E+00 1.24827E-13 2.10527E-15
 -1       264 4.69115E+00-5.58976E-02 1.52963E+00 3.86410E+00-2.11258E-15-1.22714E-14
 -1       265-9.66610E+00-3.10058E+00-4.21300E+00 1.13493E+00 6.19565E-15 4.67069E-14
 -1       266 1.03439E+01 2.65609E+00 4.29000E+00 5.68173E+00-2.81342E-15 6.15564E-15
 -1       267 4.69115E+00-5.58976E-02 1.52963E+00 3.86410E+00 3.97034E-14-3.03472E-15
 -1       268-9.66610E+00-3.10058E+00-4.21300E+00 1.13493E+00 4.82340E-14 3.59238E-14
 -1       269 9.51822E+00 6.17321E+00 5.17817E+00 7.76399E+00 2.81697E-13 5.29464E-15
 -1       270 1.47374E+00 3.34894E+00 1.59149E+00 3.39200E+00-4.57889E-14-6.94877E-14
 -1       271-8.10174E+00 1.10773E+00-2.30802E+00-1.43490E+00 5.95420E-14-1.69547E-13
 -1       272 7.33963E+00 8.54148E+00 5.24077E+00 7.94983E+00 2.35029E-13-3.25574E-13
 -1       273-5.25918E-01 5.48534E+00 1.63661E+00 4.42533E+00 3.95107E-13 7.39907E-14
 -1       274-6.84074E+00 1.46896E+00-1.77269E+00 6.20412E-01-6.99835E-13-3.05926E-13
 -1       275 6.58159E+00 7.61201E+00 4.68389E+00 7.53744E+00-1.40108E-13 2.43545E-13
 -1       276 2.86619E+00 1.40734E+00 1.41027E+00 3.65781E+00 1.12914E-15 1.36823E-15
 -1       277 1.23937E+01 9.77858E+00 7.31684E+00 1.02627E+01 3.87805E-13-3.59955E-13
 -1       278 1.30930E+01 1.11957E+01 8.01528E+00 1.26080E+01-1.70114E-13 1.45167E-13
 -1       279 9.35639E+00 7.95100E+00 5.71144E+00 9.54516E+00 3.09746E-14-3.39241E-14
 -1       280 4.24750E+00 3.43236E+00 2.53435E+00 5.29976E+00-2.48042E-14 1.69620E-16
 -1       281 1.23937E+01 9.77858E+00 7.31684E+00 1.02627E+01-3.90321E-13 3.05170E-13
 -1       282 1.30930E+01 1.11957E+01 8.01528E+00 1.26080E+01 6.95272E-14-1.16457E-13
 -1       283 9.35639E+00 7.95100E+00 5.71144E+00 9.54516E+00-1.08062E-13 2.53374E-14
 -1       284 4.24750E+00 3.43236E+00 2.53435E+00 5.29976E+00 3.47965E-14 4.50600E-15
 -1       285-1.95786E+00 2.21133E+00 8.36431E-02-1.48899E-01 5.13700E-13 3.75742E-13
 -1       286 5.85742E-01 7.72820E+00 2.74360E+00 3.04108E+00-1.12517E-12 2.79637E-13
 -1       287 8.63516E-01 1.31371E+01 4.62022E+00 6.36514E+00-9.45702E-13 5.45221E-13
 -1       288-1.53144E+00 1.16597E+01 3.34233E+00 7.54723E+00-3.78215E-13 1.51411E-13
 -1       289 6.54211E-01 8.33801E+00 2.96743E+00 7.51790E+00 4.60117E-13-5.99817E-13
 -1       290 5.85742E-01 7.72820E+00 2.74360E+00 3.04108E+00 5.04505E-13-3.26013E-13
 -1       291 8.63516E-01 1.31371E+01 4.62022E+00 6.36514E+00 9.28149E-13-7.89475E-13
 -1       292-1.53144E+00 1.16597E+01 3.34233E+00 7.54723E+00 9.39917E-13-1.52744E-13
 -1       293 6.54211E-01 8.33801E+00 2.96743E+00 7.51790E+00-4.46201E-13 9.97051E-13
 -1       294-3.94690E+01-1.95028E+01-1.94607E+01 3.28592E+00 6.31266E-16 5.04013E-15
 -1       295-3.03363E+01-8.06043E+00-1.26709E+01-2.65311E+00-2.54284E-15 1.16087E-13
 -1       296-1.71544E+01-3.80531E-02-5.67353E+00-7.40085E+00-1.50929E-14 2.21098E-14
 -1       297-1.67721E+01-2.34896E+00-6.30994E+00-5.04470E+00-3.32237E-13 3.27122E-14
 -1       298-9.78610E+00-2.19323E+00-3.95318E+00-2.77068E+00-1.26432E-13 3.75431E-13
 -1       299-3.03363E+01-8.06043E+00-1.26709E+01-2.65311E+00-1.65031E-14-5.47279E-14
 -1       300-1.71544E+01-3.80531E-02-5.67353E+00-7.40085E+00 6.68025E-15 6.62883E-14
 -1       301-1.67721E+01-2.34896E+00-6.30994E+00-5.04470E+00 2.66803E-13-4.54972E-13
 -1       302-9.78610E+00-2.19323E+00-3.95318E+00-2.77068E+00 1.52993E-14-6.10666E-13
 -1       303 6.63809E+00 3.26151E+00 3.26687E+00 3.93152E+00 3.08882E-15 5.00470E-17
 -1       304 9.67354E+00 4.81031E+00 4.77967E+00 2.70133E+00 3.50553E-15 4.25469E-15
 -1       305 5.68447E+00 2.86774E+00 2.82223E+00 1.90283E-01 4.53238E-15 4.95467E-15
 -1       306-1.68172E+01-8.35233E+00-8.30594E+00 9.70116E-01-6.43767E-15 2.11224E-14
 -1       307 6.63809E+00 3.26151E+00 3.26687E+00 3.93152E+00-5.34470E-15-8.28780E-16
 -1       308 9.67354E+00 4.81031E+00 4.77967E+00 2.70133E+00-7.26637E-15-5.05267E-15
 -1       309 5.68447E+00 2.86774E+00 2.82223E+00 1.90283E-01-2.89765E-15-6.15321E-15
 -1       310-1.68172E+01-8.35233E+00-8.30594E+00 9.70116E-01 6.79255E-15-3.46135E-14
 -1       311 1.49925E+01 1.22002E+01 8.97360E+00 1.31117E+01 8.16475E-13 1.63971E-13
 -1       312 1.38161E+01 1.05250E+01 8.03256E+00 1.18238E+01 1.18111E-13-9.80388E-15
 -1       313 8.60856E+00 6.64312E+00 5.03305E+00 6.32256E+00 3.38578E-14 6.76706E-15
 -1       314 4.20526E-01 1.18113E+01 4.03650E+00 5.61082E+00-5.41950E-13-7.64615E-13
 -1       315-7.07083E-01 1.31768E+01 4.11502E+00 7.44911E+00 2.15110E-13 3.50455E-13
 -1       316-1.38997E+00 1.09945E+01 3.16949E+00 7.64366E+00 1.49659E-14 7.75452E-14
 -1       317-2.13297E+01-6.93182E-01-7.26755E+00-8.00537E+00 3.76168E-14-2.86035E-14
 -1       318-1.81215E+01-3.15497E+00-7.02124E+00-5.99329E+00-1.44726E-14-9.44310E-14
 -1       319-1.44595E+01-9.91961E-01-5.09899E+00-5.17589E+00-3.63068E-13-3.44120E-13
 -1       320 8.67822E+00 4.29160E+00 4.28004E+00 3.85622E+00 1.75507E-16-1.34995E-15
 -1       321 8.39050E+00 4.18757E+00 4.15077E+00 1.51445E+00 1.49450E-15-3.04070E-16
 -1       322-4.87971E-01-2.42480E-01-2.41049E-01-7.82676E-01-1.22597E-15 6.06269E-15
 -1       323 1.09447E+01 1.01189E+01 6.95101E+00 1.04742E+01 6.08711E-13 1.42242E-13
 -1       324 3.97811E+00 8.50081E+00 4.11804E+00 7.58878E+00 2.23211E-14-6.78797E-15
 -1       325 3.19925E+00 6.93650E+00 3.34480E+00 6.19404E+00 4.15984E-13-2.60313E-13
 -1       326-1.15704E+00 6.47905E+00 1.75626E+00 6.09929E+00-3.43754E-13 2.01095E-14
 -1       327-3.30476E+00 3.92656E+00 2.05193E-01 2.51959E+00 5.67380E-14 2.84332E-15
 -1       328-4.56662E+00 3.01900E+00-5.10715E-01 3.27120E+00-2.64166E-13 3.96267E-13
 -1       329-9.95115E+00 4.38861E-01-3.13906E+00-2.20193E+00-2.85238E-13 2.73236E-14