
 displacements (vx,vy,vz) for set VERTEX and time  0.1000000E+01

      1573 -2.370328E+01  3.205355E+01  0.000000E+00
