
 displacements (vx,vy,vz) for set A and time  0.1000000E+01

         1  4.311539E-05 -2.694799E-24  2.033689E-05
