    1C
    1UHash: PXJD0WWr, Date: 03/11/2021, Unit system: MM_TON_S_C         
    1UUSER                                                              
    1UDATE              13.march.2021                                   
    1UTIME              18:35:32                                        
    1UHOST                                                              
    1UPGM               CalculiX                                        
    1UVERSION           Version 2.17                             
    1UCOMPILETIME       Thu Jul 23 21:43:50 CEST 2020                    
    1UDIR                                                               
    1UDBN                                                               
    1UMAT    1RUBBER                                                    
    2C                           155                                     1
 -1       225 4.80000E+01 4.40000E+01 0.00000E+00
 -1       226 4.80000E+01 4.40000E+01 5.00000E+00
 -1       227 0.00000E+00 0.00000E+00 0.00000E+00
 -1       228 0.00000E+00 0.00000E+00 5.00000E+00
 -1       229 4.80000E+01 6.00000E+01 0.00000E+00
 -1       230 4.80000E+01 6.00000E+01 5.00000E+00
 -1       231 0.00000E+00 4.40000E+01 0.00000E+00
 -1       232 0.00000E+00 4.40000E+01 5.00000E+00
 -1       233 3.60000E+01 3.30000E+01 0.00000E+00
 -1       234 2.40000E+01 2.20000E+01 0.00000E+00
 -1       235 1.20000E+01 1.10000E+01 0.00000E+00
 -1       236 3.60000E+01 3.30000E+01 5.00000E+00
 -1       237 2.40000E+01 2.20000E+01 5.00000E+00
 -1       238 1.20000E+01 1.10000E+01 5.00000E+00
 -1       239 4.80000E+01 5.60000E+01 0.00000E+00
 -1       240 4.80000E+01 5.20000E+01 0.00000E+00
 -1       241 4.80000E+01 4.80000E+01 0.00000E+00
 -1       242 4.80000E+01 5.60000E+01 5.00000E+00
 -1       243 4.80000E+01 5.20000E+01 5.00000E+00
 -1       244 4.80000E+01 4.80000E+01 5.00000E+00
 -1       245 1.20000E+01 4.80000E+01 0.00000E+00
 -1       246 2.40000E+01 5.20000E+01 0.00000E+00
 -1       247 3.60000E+01 5.60000E+01 0.00000E+00
 -1       248 1.20000E+01 4.80000E+01 5.00000E+00
 -1       249 2.40000E+01 5.20000E+01 5.00000E+00
 -1       250 3.60000E+01 5.60000E+01 5.00000E+00
 -1       251 0.00000E+00 1.10000E+01 0.00000E+00
 -1       252 0.00000E+00 2.20000E+01 0.00000E+00
 -1       253 0.00000E+00 3.30000E+01 0.00000E+00
 -1       254 0.00000E+00 1.10000E+01 5.00000E+00
 -1       255 0.00000E+00 2.20000E+01 5.00000E+00
 -1       256 0.00000E+00 3.30000E+01 5.00000E+00
 -1       257 3.60000E+01 3.87500E+01 0.00000E+00
 -1       258 3.60000E+01 4.45000E+01 0.00000E+00
 -1       259 3.60000E+01 5.02500E+01 0.00000E+00
 -1       260 2.40000E+01 2.95000E+01 0.00000E+00
 -1       261 2.40000E+01 3.70000E+01 0.00000E+00
 -1       262 2.40000E+01 4.45000E+01 0.00000E+00
 -1       263 1.20000E+01 2.02500E+01 0.00000E+00
 -1       264 1.20000E+01 2.95000E+01 0.00000E+00
 -1       265 1.20000E+01 3.87500E+01 0.00000E+00
 -1       266 1.20000E+01 2.02500E+01 5.00000E+00
 -1       267 1.20000E+01 2.95000E+01 5.00000E+00
 -1       268 1.20000E+01 3.87500E+01 5.00000E+00
 -1       269 2.40000E+01 2.95000E+01 5.00000E+00
 -1       270 2.40000E+01 3.70000E+01 5.00000E+00
 -1       271 2.40000E+01 4.45000E+01 5.00000E+00
 -1       272 3.60000E+01 3.87500E+01 5.00000E+00
 -1       273 3.60000E+01 4.45000E+01 5.00000E+00
 -1       274 3.60000E+01 5.02500E+01 5.00000E+00
 -1       275 4.80000E+01 4.40000E+01 2.50000E+00
 -1       276 0.00000E+00 0.00000E+00 2.50000E+00
 -1       277 4.20000E+01 3.85000E+01 0.00000E+00
 -1       278 3.00000E+01 2.75000E+01 0.00000E+00
 -1       279 1.80000E+01 1.65000E+01 0.00000E+00
 -1       280 6.00000E+00 5.50000E+00 0.00000E+00
 -1       281 4.20000E+01 3.85000E+01 5.00000E+00
 -1       282 3.00000E+01 2.75000E+01 5.00000E+00
 -1       283 1.80000E+01 1.65000E+01 5.00000E+00
 -1       284 6.00000E+00 5.50000E+00 5.00000E+00
 -1       285 4.80000E+01 6.00000E+01 2.50000E+00
 -1       286 4.80000E+01 5.80000E+01 0.00000E+00
 -1       287 4.80000E+01 5.40000E+01 0.00000E+00
 -1       288 4.80000E+01 5.00000E+01 0.00000E+00
 -1       289 4.80000E+01 4.60000E+01 0.00000E+00
 -1       290 4.80000E+01 5.80000E+01 5.00000E+00
 -1       291 4.80000E+01 5.40000E+01 5.00000E+00
 -1       292 4.80000E+01 5.00000E+01 5.00000E+00
 -1       293 4.80000E+01 4.60000E+01 5.00000E+00
 -1       294 0.00000E+00 4.40000E+01 2.50000E+00
 -1       295 6.00000E+00 4.60000E+01 0.00000E+00
 -1       296 1.80000E+01 5.00000E+01 0.00000E+00
 -1       297 3.00000E+01 5.40000E+01 0.00000E+00
 -1       298 4.20000E+01 5.80000E+01 0.00000E+00
 -1       299 6.00000E+00 4.60000E+01 5.00000E+00
 -1       300 1.80000E+01 5.00000E+01 5.00000E+00
 -1       301 3.00000E+01 5.40000E+01 5.00000E+00
 -1       302 4.20000E+01 5.80000E+01 5.00000E+00
 -1       303 0.00000E+00 5.50000E+00 0.00000E+00
 -1       304 0.00000E+00 1.65000E+01 0.00000E+00
 -1       305 0.00000E+00 2.75000E+01 0.00000E+00
 -1       306 0.00000E+00 3.85000E+01 0.00000E+00
 -1       307 0.00000E+00 5.50000E+00 5.00000E+00
 -1       308 0.00000E+00 1.65000E+01 5.00000E+00
 -1       309 0.00000E+00 2.75000E+01 5.00000E+00
 -1       310 0.00000E+00 3.85000E+01 5.00000E+00
 -1       311 3.60000E+01 3.30000E+01 2.50000E+00
 -1       312 2.40000E+01 2.20000E+01 2.50000E+00
 -1       313 1.20000E+01 1.10000E+01 2.50000E+00
 -1       314 4.80000E+01 5.60000E+01 2.50000E+00
 -1       315 4.80000E+01 5.20000E+01 2.50000E+00
 -1       316 4.80000E+01 4.80000E+01 2.50000E+00
 -1       317 1.20000E+01 4.80000E+01 2.50000E+00
 -1       318 2.40000E+01 5.20000E+01 2.50000E+00
 -1       319 3.60000E+01 5.60000E+01 2.50000E+00
 -1       320 0.00000E+00 1.10000E+01 2.50000E+00
 -1       321 0.00000E+00 2.20000E+01 2.50000E+00
 -1       322 0.00000E+00 3.30000E+01 2.50000E+00
 -1       323 3.60000E+01 3.58750E+01 0.00000E+00
 -1       324 4.20000E+01 4.33750E+01 0.00000E+00
 -1       325 3.60000E+01 4.16250E+01 0.00000E+00
 -1       326 4.20000E+01 4.82500E+01 0.00000E+00
 -1       327 3.60000E+01 4.73750E+01 0.00000E+00
 -1       328 4.20000E+01 5.31250E+01 0.00000E+00
 -1       329 3.60000E+01 5.31250E+01 0.00000E+00
 -1       330 2.40000E+01 2.57500E+01 0.00000E+00
 -1       331 3.00000E+01 3.41250E+01 0.00000E+00
 -1       332 2.40000E+01 3.32500E+01 0.00000E+00
 -1       333 3.00000E+01 4.07500E+01 0.00000E+00
 -1       334 2.40000E+01 4.07500E+01 0.00000E+00
 -1       335 3.00000E+01 4.73750E+01 0.00000E+00
 -1       336 2.40000E+01 4.82500E+01 0.00000E+00
 -1       337 1.20000E+01 1.56250E+01 0.00000E+00
 -1       338 1.80000E+01 2.48750E+01 0.00000E+00
 -1       339 1.20000E+01 2.48750E+01 0.00000E+00
 -1       340 1.80000E+01 3.32500E+01 0.00000E+00
 -1       341 1.20000E+01 3.41250E+01 0.00000E+00
 -1       342 1.80000E+01 4.16250E+01 0.00000E+00
 -1       343 1.20000E+01 4.33750E+01 0.00000E+00
 -1       344 6.00000E+00 1.56250E+01 0.00000E+00
 -1       345 6.00000E+00 2.57500E+01 0.00000E+00
 -1       346 6.00000E+00 3.58750E+01 0.00000E+00
 -1       347 1.20000E+01 1.56250E+01 5.00000E+00
 -1       348 6.00000E+00 1.56250E+01 5.00000E+00
 -1       349 1.20000E+01 2.48750E+01 5.00000E+00
 -1       350 6.00000E+00 2.57500E+01 5.00000E+00
 -1       351 1.20000E+01 3.41250E+01 5.00000E+00
 -1       352 6.00000E+00 3.58750E+01 5.00000E+00
 -1       353 1.20000E+01 4.33750E+01 5.00000E+00
 -1       354 2.40000E+01 2.57500E+01 5.00000E+00
 -1       355 1.80000E+01 2.48750E+01 5.00000E+00
 -1       356 2.40000E+01 3.32500E+01 5.00000E+00
 -1       357 1.80000E+01 3.32500E+01 5.00000E+00
 -1       358 2.40000E+01 4.07500E+01 5.00000E+00
 -1       359 1.80000E+01 4.16250E+01 5.00000E+00
 -1       360 2.40000E+01 4.82500E+01 5.00000E+00
 -1       361 3.60000E+01 3.58750E+01 5.00000E+00
 -1       362 3.00000E+01 3.41250E+01 5.00000E+00
 -1       363 3.60000E+01 4.16250E+01 5.00000E+00
 -1       364 3.00000E+01 4.07500E+01 5.00000E+00
 -1       365 3.60000E+01 4.73750E+01 5.00000E+00
 -1       366 3.00000E+01 4.73750E+01 5.00000E+00
 -1       367 3.60000E+01 5.31250E+01 5.00000E+00
 -1       368 4.20000E+01 4.33750E+01 5.00000E+00
 -1       369 4.20000E+01 4.82500E+01 5.00000E+00
 -1       370 4.20000E+01 5.31250E+01 5.00000E+00
 -1       371 3.60000E+01 3.87500E+01 2.50000E+00
 -1       372 3.60000E+01 4.45000E+01 2.50000E+00
 -1       373 3.60000E+01 5.02500E+01 2.50000E+00
 -1       374 2.40000E+01 2.95000E+01 2.50000E+00
 -1       375 2.40000E+01 3.70000E+01 2.50000E+00
 -1       376 2.40000E+01 4.45000E+01 2.50000E+00
 -1       377 1.20000E+01 2.02500E+01 2.50000E+00
 -1       378 1.20000E+01 2.95000E+01 2.50000E+00
 -1       379 1.20000E+01 3.87500E+01 2.50000E+00
 -3
    3C                            16                                     1
 -1       379    4    0    1
 -2       226       225       233       236       244       241       257       272       275       277
 -2       311       281       293       289       323       361       316       324       371       368
 -1       380    4    0    1
 -2       244       241       257       272       243       240       258       273       316       324
 -2       371       368       292       288       325       363       315       326       372       369
 -1       381    4    0    1
 -2       243       240       258       273       242       239       259       274       315       326
 -2       372       369       291       287       327       365       314       328       373       370
 -1       382    4    0    1
 -2       242       239       259       274       230       229       247       250       314       328
 -2       373       370       290       286       329       367       285       298       319       302
 -1       383    4    0    1
 -2       236       233       234       237       272       257       260       269       311       278
 -2       312       282       361       323       330       354       371       331       374       362
 -1       384    4    0    1
 -2       272       257       260       269       273       258       261       270       371       331
 -2       374       362       363       325       332       356       372       333       375       364
 -1       385    4    0    1
 -2       273       258       261       270       274       259       262       271       372       333
 -2       375       364       365       327       334       358       373       335       376       366
 -1       386    4    0    1
 -2       274       259       262       271       250       247       246       249       373       335
 -2       376       366       367       329       336       360       319       297       318       301
 -1       387    4    0    1
 -2       237       234       235       238       269       260       263       266       312       279
 -2       313       283       354       330       337       347       374       338       377       355
 -1       388    4    0    1
 -2       269       260       263       266       270       261       264       267       374       338
 -2       377       355       356       332       339       349       375       340       378       357
 -1       389    4    0    1
 -2       270       261       264       267       271       262       265       268       375       340
 -2       378       357       358       334       341       351       376       342       379       359
 -1       390    4    0    1
 -2       271       262       265       268       249       246       245       248       376       342
 -2       379       359       360       336       343       353       318       296       317       300
 -1       391    4    0    1
 -2       238       235       227       228       266       263       251       254       313       280
 -2       276       284       347       337       303       307       377       344       320       348
 -1       392    4    0    1
 -2       266       263       251       254       267       264       252       255       377       344
 -2       320       348       349       339       304       308       378       345       321       350
 -1       393    4    0    1
 -2       267       264       252       255       268       265       253       256       378       345
 -2       321       350       351       341       305       309       379       346       322       352
 -1       394    4    0    1
 -2       268       265       253       256       248       245       231       232       379       346
 -2       322       352       353       343       306       310       317       295       294       299
 -3
    1PSTEP                         1           1           1          
  100CL  101 1.000000000         155                     0    1           1
 -4  DISP        4    1
 -5  D1          1    2    1    0
 -5  D2          1    2    2    0
 -5  D3          1    2    3    0
 -5  ALL         1    2    0    0    1ALL
 -1       225-4.19944E+00 2.21116E+01 0.00000E+00
 -1       226-4.19944E+00 2.21116E+01 0.00000E+00
 -1       227 0.00000E+00 0.00000E+00 0.00000E+00
 -1       228 0.00000E+00 0.00000E+00 0.00000E+00
 -1       229-1.64662E+01 2.35910E+01 0.00000E+00
 -1       230-1.64662E+01 2.35910E+01 0.00000E+00
 -1       231 0.00000E+00 0.00000E+00 0.00000E+00
 -1       232 0.00000E+00 0.00000E+00 0.00000E+00
 -1       233 5.16587E-01 1.16237E+01 0.00000E+00
 -1       234 1.09133E+00 5.34693E+00 0.00000E+00
 -1       235 3.24948E-01 2.37455E+00 0.00000E+00
 -1       236 5.16587E-01 1.16237E+01 0.00000E+00
 -1       237 1.09133E+00 5.34693E+00 0.00000E+00
 -1       238 3.24948E-01 2.37455E+00 0.00000E+00
 -1       239-1.26699E+01 2.33528E+01 0.00000E+00
 -1       240-9.61773E+00 2.28890E+01 0.00000E+00
 -1       241-6.88461E+00 2.23592E+01 0.00000E+00
 -1       242-1.26699E+01 2.33528E+01 0.00000E+00
 -1       243-9.61773E+00 2.28890E+01 0.00000E+00
 -1       244-6.88461E+00 2.23592E+01 0.00000E+00
 -1       245-2.38970E+00 2.49824E+00 0.00000E+00
 -1       246-6.97233E+00 5.94443E+00 0.00000E+00
 -1       247-1.15969E+01 1.27841E+01 0.00000E+00
 -1       248-2.38970E+00 2.49824E+00 0.00000E+00
 -1       249-6.97233E+00 5.94443E+00 0.00000E+00
 -1       250-1.15969E+01 1.27841E+01 0.00000E+00
 -1       251 0.00000E+00 0.00000E+00 0.00000E+00
 -1       252 0.00000E+00 0.00000E+00 0.00000E+00
 -1       253 0.00000E+00 0.00000E+00 0.00000E+00
 -1       254 0.00000E+00 0.00000E+00 0.00000E+00
 -1       255 0.00000E+00 0.00000E+00 0.00000E+00
 -1       256 0.00000E+00 0.00000E+00 0.00000E+00
 -1       257-1.20210E+00 1.15555E+01 0.00000E+00
 -1       258-3.78976E+00 1.17655E+01 0.00000E+00
 -1       259-7.23737E+00 1.21739E+01 0.00000E+00
 -1       260 8.10291E-01 4.92699E+00 0.00000E+00
 -1       261-4.82140E-01 4.72586E+00 0.00000E+00
 -1       262-2.93706E+00 5.10920E+00 0.00000E+00
 -1       263 4.82756E-01 1.88210E+00 0.00000E+00
 -1       264 2.30301E-01 1.14521E+00 0.00000E+00
 -1       265-5.66831E-01 9.49621E-01 0.00000E+00
 -1       266 4.82756E-01 1.88210E+00 0.00000E+00
 -1       267 2.30301E-01 1.14521E+00 0.00000E+00
 -1       268-5.66831E-01 9.49621E-01 0.00000E+00
 -1       269 8.10291E-01 4.92699E+00 0.00000E+00
 -1       270-4.82140E-01 4.72586E+00 0.00000E+00
 -1       271-2.93706E+00 5.10920E+00 0.00000E+00
 -1       272-1.20210E+00 1.15555E+01 0.00000E+00
 -1       273-3.78976E+00 1.17655E+01 0.00000E+00
 -1       274-7.23737E+00 1.21739E+01 0.00000E+00
 -1       275-4.19944E+00 2.21116E+01-3.33465E-12
 -1       276 0.00000E+00 0.00000E+00 0.00000E+00
 -1       277-1.17120E+00 1.63533E+01 0.00000E+00
 -1       278 1.17581E+00 7.83316E+00 0.00000E+00
 -1       279 6.74863E-01 3.22672E+00 0.00000E+00
 -1       280 8.12600E-02 1.03563E+00 0.00000E+00
 -1       281-1.17120E+00 1.63533E+01 0.00000E+00
 -1       282 1.17581E+00 7.83316E+00 0.00000E+00
 -1       283 6.74863E-01 3.22672E+00 0.00000E+00
 -1       284 8.12600E-02 1.03563E+00 0.00000E+00
 -1       285-1.64662E+01 2.35910E+01-4.72343E-12
 -1       286-1.45585E+01 2.34577E+01 0.00000E+00
 -1       287-1.11352E+01 2.31147E+01 0.00000E+00
 -1       288-8.24285E+00 2.26123E+01 0.00000E+00
 -1       289-5.53355E+00 2.21849E+01 0.00000E+00
 -1       290-1.45585E+01 2.34577E+01 0.00000E+00
 -1       291-1.11352E+01 2.31147E+01 0.00000E+00
 -1       292-8.24285E+00 2.26123E+01 0.00000E+00
 -1       293-5.53355E+00 2.21849E+01 0.00000E+00
 -1       294 0.00000E+00 0.00000E+00 0.00000E+00
 -1       295-5.91913E-01 1.46100E+00 0.00000E+00
 -1       296-4.75164E+00 3.90801E+00 0.00000E+00
 -1       297-9.19411E+00 8.91107E+00 0.00000E+00
 -1       298-1.40627E+01 1.75811E+01 0.00000E+00
 -1       299-5.91913E-01 1.46100E+00 0.00000E+00
 -1       300-4.75164E+00 3.90801E+00 0.00000E+00
 -1       301-9.19411E+00 8.91107E+00 0.00000E+00
 -1       302-1.40627E+01 1.75811E+01 0.00000E+00
 -1       303 0.00000E+00 0.00000E+00 0.00000E+00
 -1       304 0.00000E+00 0.00000E+00 0.00000E+00
 -1       305 0.00000E+00 0.00000E+00 0.00000E+00
 -1       306 0.00000E+00 0.00000E+00 0.00000E+00
 -1       307 0.00000E+00 0.00000E+00 0.00000E+00
 -1       308 0.00000E+00 0.00000E+00 0.00000E+00
 -1       309 0.00000E+00 0.00000E+00 0.00000E+00
 -1       310 0.00000E+00 0.00000E+00 0.00000E+00
 -1       311 5.16587E-01 1.16237E+01-6.28339E-13
 -1       312 1.09133E+00 5.34693E+00 1.87681E-12
 -1       313 3.24948E-01 2.37455E+00-4.05682E-13
 -1       314-1.26699E+01 2.33528E+01-5.46052E-12
 -1       315-9.61773E+00 2.28890E+01 5.96893E-12
 -1       316-6.88461E+00 2.23592E+01-8.41105E-13
 -1       317-2.38970E+00 2.49824E+00-1.20168E-13
 -1       318-6.97233E+00 5.94443E+00 1.59758E-12
 -1       319-1.15969E+01 1.27841E+01 1.52367E-12
 -1       320 0.00000E+00 0.00000E+00 0.00000E+00
 -1       321 0.00000E+00 0.00000E+00 0.00000E+00
 -1       322 0.00000E+00 0.00000E+00 0.00000E+00
 -1       323-3.24459E-01 1.14756E+01 0.00000E+00
 -1       324-3.54889E+00 1.64633E+01 0.00000E+00
 -1       325-2.48387E+00 1.15641E+01 0.00000E+00
 -1       326-6.42230E+00 1.67983E+01 0.00000E+00
 -1       327-5.50087E+00 1.19016E+01 0.00000E+00
 -1       328-9.82984E+00 1.72065E+01 0.00000E+00
 -1       329-9.40481E+00 1.24031E+01 0.00000E+00
 -1       330 9.67068E-01 5.04796E+00 0.00000E+00
 -1       331 2.26947E-01 7.74821E+00 0.00000E+00
 -1       332 1.77028E-01 4.68719E+00 0.00000E+00
 -1       333-1.78789E+00 7.81224E+00 0.00000E+00
 -1       334-1.69873E+00 4.74506E+00 0.00000E+00
 -1       335-4.92533E+00 8.18092E+00 0.00000E+00
 -1       336-4.94266E+00 5.41159E+00 0.00000E+00
 -1       337 4.10210E-01 2.16758E+00 0.00000E+00
 -1       338 8.09261E-01 2.95536E+00 0.00000E+00
 -1       339 3.67380E-01 1.46707E+00 0.00000E+00
 -1       340 1.73700E-01 2.64563E+00 0.00000E+00
 -1       341-1.55810E-01 8.84338E-01 0.00000E+00
 -1       342-1.43528E+00 2.83372E+00 0.00000E+00
 -1       343-1.47797E+00 1.33165E+00 0.00000E+00
 -1       344 1.19242E-01 7.23710E-01 0.00000E+00
 -1       345 5.50873E-02 3.72620E-01 0.00000E+00
 -1       346-1.44193E-01 3.98040E-01 0.00000E+00
 -1       347 4.10210E-01 2.16758E+00 0.00000E+00
 -1       348 1.19242E-01 7.23710E-01 0.00000E+00
 -1       349 3.67380E-01 1.46707E+00 0.00000E+00
 -1       350 5.50873E-02 3.72620E-01 0.00000E+00
 -1       351-1.55810E-01 8.84338E-01 0.00000E+00
 -1       352-1.44193E-01 3.98040E-01 0.00000E+00
 -1       353-1.47797E+00 1.33165E+00 0.00000E+00
 -1       354 9.67068E-01 5.04796E+00 0.00000E+00
 -1       355 8.09261E-01 2.95536E+00 0.00000E+00
 -1       356 1.77028E-01 4.68719E+00 0.00000E+00
 -1       357 1.73700E-01 2.64563E+00 0.00000E+00
 -1       358-1.69873E+00 4.74506E+00 0.00000E+00
 -1       359-1.43528E+00 2.83372E+00 0.00000E+00
 -1       360-4.94266E+00 5.41159E+00 0.00000E+00
 -1       361-3.24459E-01 1.14756E+01 0.00000E+00
 -1       362 2.26947E-01 7.74821E+00 0.00000E+00
 -1       363-2.48387E+00 1.15641E+01 0.00000E+00
 -1       364-1.78789E+00 7.81224E+00 0.00000E+00
 -1       365-5.50087E+00 1.19016E+01 0.00000E+00
 -1       366-4.92533E+00 8.18092E+00 0.00000E+00
 -1       367-9.40481E+00 1.24031E+01 0.00000E+00
 -1       368-3.54889E+00 1.64633E+01 0.00000E+00
 -1       369-6.42230E+00 1.67983E+01 0.00000E+00
 -1       370-9.82984E+00 1.72065E+01 0.00000E+00
 -1       371-1.20210E+00 1.15555E+01-1.46150E-12
 -1       372-3.78976E+00 1.17655E+01 8.15301E-14
 -1       373-7.23737E+00 1.21739E+01 9.44134E-13
 -1       374 8.10291E-01 4.92699E+00 8.14774E-13
 -1       375-4.82140E-01 4.72586E+00-7.18316E-13
 -1       376-2.93706E+00 5.10920E+00-2.19577E-14
 -1       377 4.82756E-01 1.88210E+00 7.62373E-14
 -1       378 2.30301E-01 1.14521E+00 1.40839E-13
 -1       379-5.66831E-01 9.49621E-01-2.54802E-13
 -3
    1PSTEP                         2           1           1          
  100CL  101 1.000000000         155                     0    1           1
 -4  STRESS      6    1
 -5  SXX         1    4    1    1
 -5  SYY         1    4    2    2
 -5  SZZ         1    4    3    3
 -5  SXY         1    4    1    2
 -5  SYZ         1    4    2    3
 -5  SZX         1    4    3    1
 -1       225 2.62275E+02 2.63188E+02 2.62679E+02 8.69208E+00-2.41776E-10 1.33024E-10
 -1       226 2.62275E+02 2.63188E+02 2.62679E+02 8.69208E+00 4.97905E-10-2.04979E-11
 -1       227 2.84531E+00 2.85886E+00 2.85152E+00 3.43845E+00 2.15958E-14-1.62451E-14
 -1       228 2.84531E+00 2.85886E+00 2.85152E+00 3.43845E+00 1.89833E-14-1.67201E-14
 -1       229-2.24992E+02-2.18041E+02-2.21472E+02 2.76387E+00-6.39816E-10 1.38845E-10
 -1       230-2.24992E+02-2.18041E+02-2.21472E+02 2.76387E+00 2.20647E-10 5.55123E-11
 -1       231 2.29829E+02 2.29695E+02 2.29716E+02 6.46485E+00-1.17943E-14-6.21892E-15
 -1       232 2.29829E+02 2.29695E+02 2.29716E+02 6.46485E+00 4.55344E-15 2.84229E-15
 -1       233 6.64353E+01 5.79795E+01 6.21950E+01 1.21089E+01 2.49872E-10 1.05209E-10
 -1       234-1.71894E+02-1.81475E+02-1.76649E+02 1.04607E+01-5.89251E-11 5.33199E-11
 -1       235-1.14360E+02-1.17752E+02-1.16033E+02 4.55834E+00 4.52386E-11-3.79406E-12
 -1       236 6.64353E+01 5.79795E+01 6.21950E+01 1.21089E+01-5.50063E-11 6.59137E-11
 -1       237-1.71894E+02-1.81475E+02-1.76649E+02 1.04607E+01 1.00478E-10 4.55078E-11
 -1       238-1.14360E+02-1.17752E+02-1.16033E+02 4.55834E+00-8.32332E-12-3.00250E-12
 -1       239-3.24451E+01-2.46801E+01-2.85569E+01 5.14470E+00-5.58943E-10 1.44435E-11
 -1       240-6.83613E+01-5.65780E+01-6.24571E+01 6.99834E+00-1.41361E-10 4.78972E-10
 -1       241 2.50504E+01 3.58319E+01 3.04351E+01 6.94098E+00-4.17545E-10-1.32066E-11
 -1       242-3.24451E+01-2.46801E+01-2.85569E+01 5.14470E+00 3.04382E-10-3.90758E-11
 -1       243-6.83613E+01-5.65780E+01-6.24571E+01 6.99834E+00 6.90080E-10 3.81491E-10
 -1       244 2.50504E+01 3.58319E+01 3.04351E+01 6.94098E+00 3.80428E-10-1.37228E-10
 -1       245-3.16539E+01-1.53240E-01-1.59004E+01-3.45315E+00 3.99279E-12 4.54073E-13
 -1       246-2.87702E+02-2.71476E+02-2.79533E+02-4.60615E+00-5.74722E-11 1.91074E-11
 -1       247-1.72388E+02-1.57477E+02-1.64900E+02-2.55334E+00 1.97995E-10 1.20241E-10
 -1       248-3.16539E+01-1.53240E-01-1.59004E+01-3.45315E+00-1.83681E-11-7.54992E-12
 -1       249-2.87702E+02-2.71476E+02-2.79533E+02-4.60615E+00 1.44329E-10-5.63182E-12
 -1       250-1.72388E+02-1.57477E+02-1.64900E+02-2.55334E+00-5.85284E-11 7.04600E-11
 -1       251-5.70667E+01-5.70475E+01-5.70457E+01 1.96897E+00 8.22087E-15-8.22668E-15
 -1       252-9.83917E+01-9.83825E+01-9.83674E+01 6.63467E-01-9.81232E-15 3.52593E-15
 -1       253-9.86924E+01-9.87103E+01-9.86816E+01 1.22426E+00-3.55271E-15-5.26309E-16
 -1       254-5.70667E+01-5.70475E+01-5.70457E+01 1.96897E+00 1.45385E-14-7.28508E-15
 -1       255-9.83917E+01-9.83825E+01-9.83674E+01 6.63467E-01-3.47784E-15 4.74218E-15
 -1       256-9.86924E+01-9.87103E+01-9.86816E+01 1.22426E+00-6.16772E-15 6.47755E-15
 -1       257 1.08395E+01 1.26208E+01 1.17278E+01 7.83334E+00 1.34145E-10 3.02974E-11
 -1       258-3.84524E+01-3.24711E+01-3.54547E+01 4.12939E+00 1.20885E-10 3.57551E-11
 -1       259-7.93081E+01-7.12450E+01-7.52615E+01 5.67526E-01 1.41856E-10 1.77295E-12
 -1       260-9.22099E+00-1.43154E+01-1.17658E+01 7.75258E+00-4.46961E-11 1.86610E-11
 -1       261 3.85754E+01 3.88936E+01 3.87268E+01 3.88419E+00-5.73050E-11 3.09489E-11
 -1       262-1.73512E+01-8.34836E+00-1.28472E+01-1.28532E+00-1.05964E-10 8.31344E-12
 -1       263-6.08144E+01-6.87543E+01-6.47714E+01 5.31546E+00 3.94135E-11 1.10459E-11
 -1       264-4.98245E+01-5.68603E+01-5.33317E+01 4.02900E+00 3.25141E-11-2.56267E-12
 -1       265-7.30667E+00-5.06043E+00-6.18231E+00 8.89551E-01 3.02771E-11 1.14637E-11
 -1       266-6.08144E+01-6.87543E+01-6.47714E+01 5.31546E+00-1.41165E-11 2.65826E-12
 -1       267-4.98245E+01-5.68603E+01-5.33317E+01 4.02900E+00-8.77048E-12-1.10050E-11
 -1       268-7.30667E+00-5.06043E+00-6.18231E+00 8.89551E-01 8.67711E-13 6.64307E-12
 -1       269-9.22099E+00-1.43154E+01-1.17658E+01 7.75258E+00 1.07448E-10-1.59897E-11
 -1       270 3.85754E+01 3.88936E+01 3.87268E+01 3.88419E+00 1.17938E-10 3.64408E-13
 -1       271-1.73512E+01-8.34836E+00-1.28472E+01-1.28532E+00 8.73773E-11-9.83959E-12
 -1       272 1.08395E+01 1.26208E+01 1.17278E+01 7.83334E+00-1.76799E-10-4.58051E-11
 -1       273-3.84524E+01-3.24711E+01-3.54547E+01 4.12939E+00-1.70376E-10-3.17675E-11
 -1       274-7.93081E+01-7.12450E+01-7.52615E+01 5.67526E-01-1.17336E-10-2.94957E-11
 -1       275 2.62276E+02 2.63189E+02 2.62680E+02 8.69289E+00 1.41511E-10 3.86835E-11
 -1       276 2.84569E+00 2.85900E+00 2.85177E+00 3.43889E+00-1.23603E-14-7.78565E-13
 -1       277-1.04663E+02-1.08815E+02-1.06718E+02 1.02303E+01 2.30451E-11 1.13560E-10
 -1       278-3.01149E+01-3.70193E+01-3.35604E+01 1.06936E+01 9.40976E-11 9.71638E-11
 -1       279-7.34383E+00-1.14733E+01-9.40671E+00 7.22937E+00-3.62441E-11 1.07518E-11
 -1       280-6.47969E+01-6.69223E+01-6.58464E+01 5.22735E+00 1.83289E-11-1.19931E-12
 -1       281-1.04663E+02-1.08815E+02-1.06718E+02 1.02303E+01 2.40206E-10 1.72866E-11
 -1       282-3.01149E+01-3.70193E+01-3.35604E+01 1.06936E+01 2.12850E-11 7.37016E-11
 -1       283-7.34383E+00-1.14733E+01-9.40671E+00 7.22937E+00 1.67045E-11 7.24231E-12
 -1       284-6.47969E+01-6.69223E+01-6.58464E+01 5.22735E+00-8.43178E-12-8.03059E-13
 -1       285-2.24992E+02-2.18041E+02-2.21472E+02 2.76392E+00-2.05505E-10 8.33973E-11
 -1       286 1.79541E+01 2.34544E+01 2.07001E+01 3.28391E+00-6.07030E-10 7.60735E-11
 -1       287 1.22633E+01 2.30010E+01 1.76286E+01 6.70256E+00-3.55616E-10 2.46122E-10
 -1       288 6.04406E+00 1.82757E+01 1.21574E+01 7.33575E+00-2.50271E-10 2.27738E-10
 -1       289 7.36855E+00 1.31230E+01 1.02437E+01 7.86173E+00-3.50968E-10 5.76850E-11
 -1       290 1.79541E+01 2.34544E+01 2.07001E+01 3.28391E+00 2.55129E-10 8.08854E-12
 -1       291 1.22633E+01 2.30010E+01 1.76286E+01 6.70256E+00 4.91735E-10 1.70667E-10
 -1       292 6.04406E+00 1.82757E+01 1.21574E+01 7.33575E+00 5.64580E-10 1.16884E-10
 -1       293 7.36855E+00 1.31230E+01 1.02437E+01 7.86173E+00 4.17781E-10-8.09873E-11
 -1       294 2.29829E+02 2.29696E+02 2.29717E+02 6.46490E+00-3.19180E-15-2.32159E-13
 -1       295-2.31506E+02-2.14384E+02-2.22901E+02 2.40852E+00-3.20679E-12 1.17406E-12
 -1       296 5.29744E+01 7.62346E+01 6.45916E+01-4.55040E+00-3.98210E-11 6.16498E-12
 -1       297-3.61799E+01-2.04955E+01-2.83320E+01-3.21353E+00 4.59301E-11 5.24495E-11
 -1       298 4.85116E+01 5.91143E+01 5.38022E+01-3.42316E-01-2.30434E-10 1.69875E-10
 -1       299-2.31506E+02-2.14384E+02-2.22901E+02 2.40852E+00-1.44171E-11-2.83886E-12
 -1       300 5.29744E+01 7.62346E+01 6.45916E+01-4.55040E+00 4.97434E-11-1.00610E-11
 -1       301-3.61799E+01-2.04955E+01-2.83320E+01-3.21353E+00 1.84211E-11 1.49583E-11
 -1       302 4.85116E+01 5.91143E+01 5.38022E+01-3.42316E-01 7.14846E-11 1.02957E-10
 -1       303 3.44598E+01 3.44583E+01 3.44522E+01 2.78084E+00 1.82265E-14-1.59467E-14
 -1       304 2.83879E+01 2.83611E+01 2.83689E+01 1.22756E+00 7.28290E-15-4.49980E-16
 -1       305 2.33326E+01 2.32845E+01 2.33039E+01 6.32629E-01-1.27973E-14 1.07096E-14
 -1       306 6.46224E+01 6.45340E+01 6.45653E+01 3.08416E+00-4.10939E-15 5.16277E-15
 -1       307 3.44598E+01 3.44583E+01 3.44522E+01 2.78084E+00 1.62360E-14-1.62252E-14
 -1       308 2.83879E+01 2.83611E+01 2.83689E+01 1.22756E+00-3.98443E-15-3.41096E-15
 -1       309 2.33326E+01 2.32845E+01 2.33039E+01 6.32629E-01-1.73157E-14 6.17089E-15
 -1       310 6.46224E+01 6.45340E+01 6.45653E+01 3.08416E+00 1.76954E-14-1.66215E-14
 -1       311 6.64359E+01 5.79801E+01 6.21956E+01 1.21097E+01 9.37055E-11 8.39788E-11
 -1       312-1.71894E+02-1.81475E+02-1.76649E+02 1.04615E+01 1.75778E-11 5.21634E-11
 -1       313-1.14360E+02-1.17752E+02-1.16033E+02 4.55886E+00 1.97270E-11-2.73403E-12
 -1       314-3.24458E+01-2.46800E+01-2.85572E+01 5.14493E+00-1.56403E-10-1.08265E-11
 -1       315-6.83617E+01-5.65777E+01-6.24572E+01 6.99884E+00 2.62050E-10 4.49423E-10
 -1       316 2.50508E+01 3.58326E+01 3.04356E+01 6.94168E+00 7.06916E-12-9.37238E-11
 -1       317-3.16552E+01-1.53538E-01-1.59012E+01-3.45324E+00-6.91667E-12-2.07994E-12
 -1       318-2.87704E+02-2.71477E+02-2.79534E+02-4.60637E+00 4.84218E-11 6.67942E-12
 -1       319-1.72389E+02-1.57478E+02-1.64900E+02-2.55342E+00 7.20924E-11 8.85138E-11
 -1       320-5.70668E+01-5.70480E+01-5.70460E+01 1.96933E+00-5.90283E-15 1.52551E-13
 -1       321-9.83930E+01-9.83839E+01-9.83688E+01 6.63670E-01 5.27009E-15 2.71739E-13
 -1       322-9.86930E+01-9.87105E+01-9.86820E+01 1.22434E+00 8.13908E-16-4.94458E-13
 -1       323 3.84166E+01 3.73611E+01 3.78813E+01 1.01924E+01 1.95688E-10 6.49190E-11
 -1       324-2.26894E+01-1.73417E+01-2.00115E+01 7.38034E+00-9.70604E-11 3.33104E-11
 -1       325 1.91671E+01 2.26252E+01 2.08920E+01 6.15465E+00 1.12452E-10 3.33295E-11
 -1       326-1.90085E+00 5.86257E+00 1.98046E+00 5.38827E+00-7.80379E-11 1.22142E-10
 -1       327 1.41411E+01 2.07771E+01 1.74556E+01 2.58365E+00 1.31897E-10 1.61994E-11
 -1       328-2.91234E+01-2.19209E+01-2.55170E+01 2.59178E+00-2.19487E-10 6.14514E-12
 -1       329 1.15208E+01 2.14399E+01 1.64771E+01-1.62708E+00 1.76954E-10 5.73875E-11