
 displacements (vx,vy,vz) for set VERTEX and time  0.1000000E+01

       230 -1.646616E+01  2.359096E+01  0.000000E+00
