
 displacements (vx,vy,vz) for set VERTEX and time  0.1000000E+01

       118 -1.615147E+01  2.436213E+01  0.000000E+00
