    1C
    1UHash: PXJD0WWr, Date: 03/11/2021, Unit system: MM_TON_S_C         
    1UUSER                                                              
    1UDATE              13.march.2021                                   
    1UTIME              18:36:54                                        
    1UHOST                                                              
    1UPGM               CalculiX                                        
    1UVERSION           Version 2.17                             
    1UCOMPILETIME       Thu Jul 23 21:43:50 CEST 2020                    
    1UDIR                                                               
    1UDBN                                                               
    1UMAT    1RUBBER                                                    
    2C                           890                                     1
 -1      1568 4.80000E+01 4.40000E+01 0.00000E+00
 -1      1569 4.80000E+01 4.40000E+01 5.00000E+00
 -1      1570 0.00000E+00 0.00000E+00 0.00000E+00
 -1      1571 0.00000E+00 0.00000E+00 5.00000E+00
 -1      1572 4.80000E+01 6.00000E+01 0.00000E+00
 -1      1573 4.80000E+01 6.00000E+01 5.00000E+00
 -1      1574 0.00000E+00 4.40000E+01 0.00000E+00
 -1      1575 0.00000E+00 4.40000E+01 5.00000E+00
 -1      1576 4.36364E+01 4.00000E+01 0.00000E+00
 -1      1577 3.92727E+01 3.60000E+01 0.00000E+00
 -1      1578 3.49091E+01 3.20000E+01 0.00000E+00
 -1      1579 3.05455E+01 2.80000E+01 0.00000E+00
 -1      1580 2.61818E+01 2.40000E+01 0.00000E+00
 -1      1581 2.18182E+01 2.00000E+01 0.00000E+00
 -1      1582 1.74545E+01 1.60000E+01 0.00000E+00
 -1      1583 1.30909E+01 1.20000E+01 0.00000E+00
 -1      1584 8.72727E+00 8.00000E+00 0.00000E+00
 -1      1585 4.36364E+00 4.00000E+00 0.00000E+00
 -1      1586 4.36364E+01 4.00000E+01 5.00000E+00
 -1      1587 3.92727E+01 3.60000E+01 5.00000E+00
 -1      1588 3.49091E+01 3.20000E+01 5.00000E+00
 -1      1589 3.05455E+01 2.80000E+01 5.00000E+00
 -1      1590 2.61818E+01 2.40000E+01 5.00000E+00
 -1      1591 2.18182E+01 2.00000E+01 5.00000E+00
 -1      1592 1.74545E+01 1.60000E+01 5.00000E+00
 -1      1593 1.30909E+01 1.20000E+01 5.00000E+00
 -1      1594 8.72727E+00 8.00000E+00 5.00000E+00
 -1      1595 4.36364E+00 4.00000E+00 5.00000E+00
 -1      1596 4.80000E+01 5.46667E+01 0.00000E+00
 -1      1597 4.80000E+01 4.93333E+01 0.00000E+00
 -1      1598 4.80000E+01 5.46667E+01 5.00000E+00
 -1      1599 4.80000E+01 4.93333E+01 5.00000E+00
 -1      1600 5.33333E+00 4.57778E+01 0.00000E+00
 -1      1601 1.06667E+01 4.75556E+01 0.00000E+00
 -1      1602 1.60000E+01 4.93333E+01 0.00000E+00
 -1      1603 2.13333E+01 5.11111E+01 0.00000E+00
 -1      1604 2.66667E+01 5.28889E+01 0.00000E+00
 -1      1605 3.20000E+01 5.46667E+01 0.00000E+00
 -1      1606 3.73333E+01 5.64444E+01 0.00000E+00
 -1      1607 4.26667E+01 5.82222E+01 0.00000E+00
 -1      1608 5.33333E+00 4.57778E+01 5.00000E+00
 -1      1609 1.06667E+01 4.75556E+01 5.00000E+00
 -1      1610 1.60000E+01 4.93333E+01 5.00000E+00
 -1      1611 2.13333E+01 5.11111E+01 5.00000E+00
 -1      1612 2.66667E+01 5.28889E+01 5.00000E+00
 -1      1613 3.20000E+01 5.46667E+01 5.00000E+00
 -1      1614 3.73333E+01 5.64444E+01 5.00000E+00
 -1      1615 4.26667E+01 5.82222E+01 5.00000E+00
 -1      1616 0.00000E+00 6.28571E+00 0.00000E+00
 -1      1617 0.00000E+00 1.25714E+01 0.00000E+00
 -1      1618 0.00000E+00 1.88571E+01 0.00000E+00
 -1      1619 0.00000E+00 2.51429E+01 0.00000E+00
 -1      1620 0.00000E+00 3.14286E+01 0.00000E+00
 -1      1621 0.00000E+00 3.77143E+01 0.00000E+00
 -1      1622 0.00000E+00 6.28571E+00 5.00000E+00
 -1      1623 0.00000E+00 1.25714E+01 5.00000E+00
 -1      1624 0.00000E+00 1.88571E+01 5.00000E+00
 -1      1625 0.00000E+00 2.51429E+01 5.00000E+00
 -1      1626 0.00000E+00 3.14286E+01 5.00000E+00
 -1      1627 0.00000E+00 3.77143E+01 5.00000E+00
 -1      1628 4.25522E+01 4.64581E+01 0.00000E+00
 -1      1629 3.35498E+01 3.77493E+01 0.00000E+00
 -1      1630 2.51093E+01 2.99939E+01 0.00000E+00
 -1      1631 1.62723E+01 2.24504E+01 0.00000E+00
 -1      1632 8.24325E+00 1.41262E+01 0.00000E+00
 -1      1633 3.73817E+00 1.53903E+01 0.00000E+00
 -1      1634 5.14726E+00 2.78644E+01 0.00000E+00
 -1      1635 4.69256E+00 4.00632E+01 0.00000E+00
 -1      1636 1.51309E+01 4.32275E+01 0.00000E+00
 -1      1637 2.58440E+01 4.70978E+01 0.00000E+00
 -1      1638 3.71250E+01 5.02228E+01 0.00000E+00
 -1      1639 4.23875E+00 9.99835E+00 0.00000E+00
 -1      1640 4.25575E+01 5.24822E+01 0.00000E+00
 -1      1641 3.69271E+01 4.31867E+01 0.00000E+00
 -1      1642 2.95315E+01 3.34789E+01 0.00000E+00
 -1      1643 2.06835E+01 2.63365E+01 0.00000E+00
 -1      1644 1.19290E+01 1.84412E+01 0.00000E+00
 -1      1645 5.82390E+00 2.08016E+01 0.00000E+00
 -1      1646 4.62419E+00 3.40527E+01 0.00000E+00
 -1      1647 9.92739E+00 4.17520E+01 0.00000E+00
 -1      1648 2.03904E+01 4.52491E+01 0.00000E+00
 -1      1649 3.15323E+01 4.85725E+01 0.00000E+00
 -1      1650 1.97109E+01 3.27050E+01 0.00000E+00
 -1      1651 1.06546E+01 2.49252E+01 0.00000E+00
 -1      1652 9.87661E+00 3.13032E+01 0.00000E+00
 -1      1653 2.46680E+01 4.15603E+01 0.00000E+00
 -1      1654 3.03406E+01 4.29916E+01 0.00000E+00
 -1      1655 2.43158E+01 3.57621E+01 0.00000E+00
 -1      1656 2.85017E+01 3.83368E+01 0.00000E+00
 -1      1657 1.95881E+01 3.90948E+01 0.00000E+00
 -1      1658 8.78510E+00 3.66642E+01 0.00000E+00
 -1      1659 1.52231E+01 2.89724E+01 0.00000E+00
 -1      1660 1.42155E+01 3.62576E+01 0.00000E+00
 -1      1661 8.52215E+00 1.37205E+01 5.00000E+00
 -1      1662 1.62939E+01 2.22249E+01 5.00000E+00
 -1      1663 2.50781E+01 2.98710E+01 5.00000E+00
 -1      1664 3.33231E+01 3.82333E+01 5.00000E+00
 -1      1665 4.26263E+01 4.62704E+01 5.00000E+00
 -1      1666 4.24174E+01 5.23232E+01 5.00000E+00
 -1      1667 3.07989E+01 4.96092E+01 5.00000E+00
 -1      1668 2.09102E+01 4.49189E+01 5.00000E+00
 -1      1669 1.00073E+01 4.16939E+01 5.00000E+00
 -1      1670 4.71862E+00 4.00435E+01 5.00000E+00
 -1      1671 4.94682E+00 2.79924E+01 5.00000E+00
 -1      1672 4.10531E+00 1.59927E+01 5.00000E+00
 -1      1673 4.28577E+00 1.00908E+01 5.00000E+00
 -1      1674 1.25727E+01 1.78670E+01 5.00000E+00
 -1      1675 2.06494E+01 2.61884E+01 5.00000E+00
 -1      1676 2.92937E+01 3.40051E+01 5.00000E+00
 -1      1677 3.78743E+01 4.24122E+01 5.00000E+00
 -1      1678 3.65864E+01 4.94468E+01 5.00000E+00
 -1      1679 2.62363E+01 4.70325E+01 5.00000E+00
 -1      1680 1.53560E+01 4.30852E+01 5.00000E+00
 -1      1681 4.60199E+00 3.40485E+01 5.00000E+00
 -1      1682 4.47681E+00 2.20456E+01 5.00000E+00
 -1      1683 3.19549E+01 4.43122E+01 5.00000E+00
 -1      1684 1.96505E+01 3.24258E+01 5.00000E+00
 -1      1685 2.00128E+01 3.88268E+01 5.00000E+00
 -1      1686 2.66176E+01 4.04732E+01 5.00000E+00
 -1      1687 9.79752E+00 3.11260E+01 5.00000E+00
 -1      1688 8.81349E+00 3.65874E+01 5.00000E+00
 -1      1689 1.51030E+01 2.86694E+01 5.00000E+00
 -1      1690 2.41353E+01 3.52181E+01 5.00000E+00
 -1      1691 1.43033E+01 3.60900E+01 5.00000E+00
 -1      1692 1.02936E+01 2.42313E+01 5.00000E+00
 -1      1693 8.05268E+00 1.88652E+01 5.00000E+00
 -1      1694 4.54484E+01 4.65039E+01 2.48874E+00
 -1      1695 3.28025E+00 7.89106E+00 2.51083E+00
 -1      1696 2.05987E+00 4.71888E+00 2.50004E+00
 -1      1697 4.10915E+01 5.50709E+01 2.50981E+00
 -1      1698 4.48875E+01 5.56357E+01 2.50887E+00
 -1      1699 2.50425E+00 1.37339E+01 2.59297E+00
 -1      1700 3.83577E+01 3.93650E+01 2.52722E+00
 -1      1701 1.29933E+01 4.54197E+01 2.50384E+00
 -1      1702 2.87985E+00 4.17234E+01 2.49798E+00
 -1      1703 8.45418E+00 1.09211E+01 2.47266E+00
 -1      1704 3.11755E+01 3.17901E+01 2.53329E+00
 -1      1705 1.91390E+01 2.12434E+01 2.49140E+00
 -1      1706 2.45820E+00 2.34296E+01 2.46314E+00
 -1      1707 3.31962E+01 5.15829E+01 2.46183E+00
 -1      1708 4.27768E+01 4.31431E+01 2.49550E+00
 -1      1709 4.52046E+01 5.08385E+01 2.50611E+00
 -1      1710 2.36716E+01 4.90072E+01 2.52106E+00
 -1      1711 2.35648E+00 2.80590E+01 2.49071E+00
 -1      1712 1.56587E+01 1.83730E+01 2.45233E+00
 -1      1713 3.04673E+00 1.87734E+01 2.47454E+00
 -1      1714 3.43236E+01 3.51113E+01 2.51890E+00
 -1      1715 1.20938E+01 1.52372E+01 2.43144E+00
 -1      1716 2.76604E+01 2.88880E+01 2.50417E+00
 -1      1717 2.48094E+00 3.73372E+01 2.50197E+00
 -1      1718 2.33932E+01 2.50730E+01 2.49121E+00
 -1      1719 7.69925E+00 4.37580E+01 2.50218E+00
 -1      1720 1.82859E+01 4.71924E+01 2.51375E+00
 -1      1721 2.88869E+01 5.08098E+01 2.46403E+00
 -1      1722 3.71530E+01 5.32597E+01 2.50862E+00
 -1      1723 2.36068E+00 3.27171E+01 2.50586E+00
 -1      1724 4.80000E+01 4.40000E+01 2.50000E+00
 -1      1725 0.00000E+00 0.00000E+00 2.50000E+00
 -1      1726 4.58182E+01 4.20000E+01 0.00000E+00
 -1      1727 4.14545E+01 3.80000E+01 0.00000E+00
 -1      1728 3.70909E+01 3.40000E+01 0.00000E+00
 -1      1729 3.27273E+01 3.00000E+01 0.00000E+00
 -1      1730 2.83636E+01 2.60000E+01 0.00000E+00
 -1      1731 2.40000E+01 2.20000E+01 0.00000E+00
 -1      1732 1.96364E+01 1.80000E+01 0.00000E+00
 -1      1733 1.52727E+01 1.40000E+01 0.00000E+00
 -1      1734 1.09091E+01 1.00000E+01 0.00000E+00
 -1      1735 6.54545E+00 6.00000E+00 0.00000E+00
 -1      1736 2.18182E+00 2.00000E+00 0.00000E+00
 -1      1737 4.58182E+01 4.20000E+01 5.00000E+00
 -1      1738 4.14545E+01 3.80000E+01 5.00000E+00
 -1      1739 3.70909E+01 3.40000E+01 5.00000E+00
 -1      1740 3.27273E+01 3.00000E+01 5.00000E+00
 -1      1741 2.83636E+01 2.60000E+01 5.00000E+00
 -1      1742 2.40000E+01 2.20000E+01 5.00000E+00
 -1      1743 1.96364E+01 1.80000E+01 5.00000E+00
 -1      1744 1.52727E+01 1.40000E+01 5.00000E+00
 -1      1745 1.09091E+01 1.00000E+01 5.00000E+00
 -1      1746 6.54545E+00 6.00000E+00 5.00000E+00
 -1      1747 2.18182E+00 2.00000E+00 5.00000E+00
 -1      1748 4.80000E+01 6.00000E+01 2.50000E+00
 -1      1749 4.80000E+01 5.73333E+01 0.00000E+00
 -1      1750 4.80000E+01 5.20000E+01 0.00000E+00
 -1      1751 4.80000E+01 4.66667E+01 0.00000E+00
 -1      1752 4.80000E+01 5.73333E+01 5.00000E+00
 -1      1753 4.80000E+01 5.20000E+01 5.00000E+00
 -1      1754 4.80000E+01 4.66667E+01 5.00000E+00
 -1      1755 0.00000E+00 4.40000E+01 2.50000E+00
 -1      1756 2.66667E+00 4.48889E+01 0.00000E+00
 -1      1757 8.00000E+00 4.66667E+01 0.00000E+00
 -1      1758 1.33333E+01 4.84444E+01 0.00000E+00
 -1      1759 1.86667E+01 5.02222E+01 0.00000E+00
 -1      1760 2.40000E+01 5.20000E+01 0.00000E+00
 -1      1761 2.93333E+01 5.37778E+01 0.00000E+00
 -1      1762 3.46667E+01 5.55556E+01 0.00000E+00
 -1      1763 4.00000E+01 5.73333E+01 0.00000E+00
 -1      1764 4.53333E+01 5.91111E+01 0.00000E+00
 -1      1765 2.66667E+00 4.48889E+01 5.00000E+00
 -1      1766 8.00000E+00 4.66667E+01 5.00000E+00
 -1      1767 1.33333E+01 4.84444E+01 5.00000E+00
 -1      1768 1.86667E+01 5.02222E+01 5.00000E+00
 -1      1769 2.40000E+01 5.20000E+01 5.00000E+00
 -1      1770 2.93333E+01 5.37778E+01 5.00000E+00
 -1      1771 3.46667E+01 5.55556E+01 5.00000E+00
 -1      1772 4.00000E+01 5.73333E+01 5.00000E+00
 -1      1773 4.53333E+01 5.91111E+01 5.00000E+00
 -1      1774 0.00000E+00 3.14286E+00 0.00000E+00
 -1      1775 0.00000E+00 9.42857E+00 0.00000E+00
 -1      1776 0.00000E+00 1.57143E+01 0.00000E+00
 -1      1777 0.00000E+00 2.20000E+01 0.00000E+00
 -1      1778 0.00000E+00 2.82857E+01 0.00000E+00
 -1      1779 0.00000E+00 3.45714E+01 0.00000E+00
 -1      1780 0.00000E+00 4.08571E+01 0.00000E+00
 -1      1781 0.00000E+00 3.14286E+00 5.00000E+00
 -1      1782 0.00000E+00 9.42857E+00 5.00000E+00
 -1      1783 0.00000E+00 1.57143E+01 5.00000E+00
 -1      1784 0.00000E+00 2.20000E+01 5.00000E+00
 -1      1785 0.00000E+00 2.82857E+01 5.00000E+00
 -1      1786 0.00000E+00 3.45714E+01 5.00000E+00
 -1      1787 0.00000E+00 4.08571E+01 5.00000E+00
 -1      1788 4.58182E+01 4.20000E+01 2.50000E+00
 -1      1789 3.92727E+01 3.60000E+01 2.50000E+00
 -1      1790 4.14545E+01 3.80000E+01 2.50000E+00
 -1      1791 3.49091E+01 3.20000E+01 2.50000E+00
 -1      1792 3.70909E+01 3.40000E+01 2.50000E+00
 -1      1793 3.05455E+01 2.80000E+01 2.50000E+00
 -1      1794 3.27273E+01 3.00000E+01 2.50000E+00
 -1      1795 2.83636E+01 2.60000E+01 2.50000E+00
 -1      1796 2.40000E+01 2.20000E+01 2.50000E+00
 -1      1797 2.61818E+01 2.40000E+01 2.50000E+00
 -1      1798 1.96364E+01 1.80000E+01 2.50000E+00
 -1      1799 2.18182E+01 2.00000E+01 2.50000E+00
 -1      1800 1.30909E+01 1.20000E+01 2.50000E+00
 -1      1801 1.52727E+01 1.40000E+01 2.50000E+00
 -1      1802 8.72727E+00 8.00000E+00 2.50000E+00
 -1      1803 1.09091E+01 1.00000E+01 2.50000E+00
 -1      1804 4.36364E+00 4.00000E+00 2.50000E+00
 -1      1805 6.54545E+00 6.00000E+00 2.50000E+00
 -1      1806 2.18182E+00 2.00000E+00 2.50000E+00
 -1      1807 4.36364E+01 4.00000E+01 2.50000E+00
 -1      1808 1.74545E+01 1.60000E+01 2.50000E+00
 -1      1809 4.80000E+01 5.73333E+01 2.50000E+00
 -1      1810 4.80000E+01 5.20000E+01 2.50000E+00
 -1      1811 4.80000E+01 5.46667E+01 2.50000E+00
 -1      1812 4.80000E+01 4.66667E+01 2.50000E+00
 -1      1813 4.80000E+01 4.93333E+01 2.50000E+00
 -1      1814 2.66667E+00 4.48889E+01 2.50000E+00
 -1      1815 1.06667E+01 4.75556E+01 2.50000E+00
 -1      1816 8.00000E+00 4.66667E+01 2.50000E+00
 -1      1817 1.60000E+01 4.93333E+01 2.50000E+00
 -1      1818 1.33333E+01 4.84444E+01 2.50000E+00
 -1      1819 2.13333E+01 5.11111E+01 2.50000E+00
 -1      1820 1.86667E+01 5.02222E+01 2.50000E+00
 -1      1821 2.66667E+01 5.28889E+01 2.50000E+00
 -1      1822 2.40000E+01 5.20000E+01 2.50000E+00
 -1      1823 3.20000E+01 5.46667E+01 2.50000E+00
 -1      1824 2.93333E+01 5.37778E+01 2.50000E+00
 -1      1825 3.46667E+01 5.55556E+01 2.50000E+00
 -1      1826 3.73333E+01 5.64444E+01 2.50000E+00
 -1      1827 4.26667E+01 5.82222E+01 2.50000E+00
 -1      1828 4.00000E+01 5.73333E+01 2.50000E+00
 -1      1829 4.53333E+01 5.91111E+01 2.50000E+00
 -1      1830 5.33333E+00 4.57778E+01 2.50000E+00
 -1      1831 0.00000E+00 3.14286E+00 2.50000E+00
 -1      1832 0.00000E+00 1.25714E+01 2.50000E+00
 -1      1833 0.00000E+00 9.42857E+00 2.50000E+00
 -1      1834 0.00000E+00 1.88571E+01 2.50000E+00
 -1      1835 0.00000E+00 1.57143E+01 2.50000E+00
 -1      1836 0.00000E+00 2.51429E+01 2.50000E+00
 -1      1837 0.00000E+00 2.20000E+01 2.50000E+00
 -1      1838 0.00000E+00 3.14286E+01 2.50000E+00
 -1      1839 0.00000E+00 2.82857E+01 2.50000E+00
 -1      1840 0.00000E+00 3.77143E+01 2.50000E+00
 -1      1841 0.00000E+00 3.45714E+01 2.50000E+00
 -1      1842 0.00000E+00 4.08571E+01 2.50000E+00
 -1      1843 0.00000E+00 6.28571E+00 2.50000E+00
 -1      1844 4.30943E+01 4.32291E+01 0.00000E+00
 -1      1845 4.52761E+01 4.52291E+01 0.00000E+00
 -1      1846 3.42294E+01 3.48746E+01 0.00000E+00
 -1      1847 3.64113E+01 3.68746E+01 0.00000E+00
 -1      1848 2.56455E+01 2.69969E+01 0.00000E+00
 -1      1849 2.78274E+01 2.89969E+01 0.00000E+00
 -1      1850 1.68634E+01 1.92252E+01 0.00000E+00
 -1      1851 1.90452E+01 2.12252E+01 0.00000E+00
 -1      1852 8.48526E+00 1.10631E+01 0.00000E+00
 -1      1853 1.06671E+01 1.30631E+01 0.00000E+00
 -1      1854 2.18182E+00 5.14286E+00 0.00000E+00
 -1      1855 1.86908E+00 1.71237E+01 0.00000E+00
 -1      1856 1.86908E+00 1.39808E+01 0.00000E+00
 -1      1857 2.57363E+00 2.96465E+01 0.00000E+00
 -1      1858 2.57363E+00 2.65036E+01 0.00000E+00
 -1      1859 2.34628E+00 4.20316E+01 0.00000E+00
 -1      1860 2.34628E+00 3.88887E+01 0.00000E+00
 -1      1861 5.01295E+00 4.29205E+01 0.00000E+00
 -1      1862 1.55655E+01 4.62804E+01 0.00000E+00
 -1      1863 1.28988E+01 4.53915E+01 0.00000E+00
 -1      1864 2.62553E+01 4.99934E+01 0.00000E+00
 -1      1865 2.35887E+01 4.91045E+01 0.00000E+00
 -1      1866 3.72292E+01 5.33336E+01 0.00000E+00
 -1      1867 3.45625E+01 5.24447E+01 0.00000E+00
 -1      1868 4.53333E+01 5.64444E+01 0.00000E+00
 -1      1869 4.52761E+01 4.78957E+01 0.00000E+00
 -1      1870 2.11938E+00 8.14203E+00 0.00000E+00
 -1      1871 4.30119E+00 6.99918E+00 0.00000E+00
 -1      1872 6.48301E+00 8.99918E+00 0.00000E+00
 -1      1873 2.11938E+00 1.12849E+01 0.00000E+00
 -1      1874 4.52788E+01 5.35745E+01 0.00000E+00
 -1      1875 4.26121E+01 5.53522E+01 0.00000E+00
 -1      1876 3.80999E+01 3.95934E+01 0.00000E+00
 -1      1877 4.02817E+01 4.15934E+01 0.00000E+00
 -1      1878 3.00385E+01 3.07395E+01 0.00000E+00
 -1      1879 3.22203E+01 3.27394E+01 0.00000E+00
 -1      1880 2.12509E+01 2.31683E+01 0.00000E+00
 -1      1881 2.34327E+01 2.51683E+01 0.00000E+00
 -1      1882 1.25099E+01 1.52206E+01 0.00000E+00
 -1      1883 1.46918E+01 1.72206E+01 0.00000E+00
 -1      1884 3.52385E+01 4.04680E+01 0.00000E+00
 -1      1885 4.52788E+01 5.09078E+01 0.00000E+00
 -1      1886 3.99454E+01 5.44633E+01 0.00000E+00
 -1      1887 2.91195E+00 2.29722E+01 0.00000E+00
 -1      1888 2.91195E+00 1.98294E+01 0.00000E+00
 -1      1889 2.31209E+00 3.58835E+01 0.00000E+00
 -1      1890 2.31209E+00 3.27406E+01 0.00000E+00
 -1      1891 1.02970E+01 4.46538E+01 0.00000E+00
 -1      1892 7.63036E+00 4.37649E+01 0.00000E+00
 -1      1893 2.08618E+01 4.81801E+01 0.00000E+00
 -1      1894 1.81952E+01 4.72912E+01 0.00000E+00
 -1      1895 3.17662E+01 5.16196E+01 0.00000E+00
 -1      1896 2.90995E+01 5.07307E+01 0.00000E+00
 -1      1897 3.97396E+01 4.48224E+01 0.00000E+00
 -1      1898 4.78104E+00 1.80959E+01 0.00000E+00
 -1      1899 2.73204E+01 3.17364E+01 0.00000E+00
 -1      1900 4.25548E+01 4.94702E+01 0.00000E+00
 -1      1901 3.98412E+01 5.13525E+01 0.00000E+00
 -1      1902 3.98846E+00 1.26943E+01 0.00000E+00
 -1      1903 3.15407E+01 3.56141E+01 0.00000E+00
 -1      1904 2.28964E+01 2.81652E+01 0.00000E+00
 -1      1905 1.41006E+01 2.04458E+01 0.00000E+00
 -1      1906 4.88572E+00 3.09585E+01 0.00000E+00
 -1      1907 7.30997E+00 4.09076E+01 0.00000E+00
 -1      1908 2.86882E+01 4.78352E+01 0.00000E+00
 -1      1909 1.84779E+01 2.43934E+01 0.00000E+00
 -1      1910 1.00861E+01 1.62837E+01 0.00000E+00
 -1      1911 2.31172E+01 4.61735E+01 0.00000E+00
 -1      1912 3.43287E+01 4.93976E+01 0.00000E+00
 -1      1913 1.25292E+01 4.24898E+01 0.00000E+00
 -1      1914 4.65837E+00 3.70579E+01 0.00000E+00
 -1      1915 5.48558E+00 2.43330E+01 0.00000E+00
 -1      1916 1.77607E+01 4.42383E+01 0.00000E+00
 -1      1917 3.98386E+01 4.83405E+01 0.00000E+00
 -1      1918 2.01972E+01 2.95207E+01 0.00000E+00
 -1      1919 2.24101E+01 3.13494E+01 0.00000E+00
 -1      1920 1.12918E+01 2.16832E+01 0.00000E+00
 -1      1921 1.34635E+01 2.36878E+01 0.00000E+00
 -1      1922 7.25040E+00 3.26779E+01 0.00000E+00
 -1      1923 7.51193E+00 2.95838E+01 0.00000E+00
 -1      1924 2.52560E+01 4.43291E+01 0.00000E+00
 -1      1925 2.25292E+01 4.34047E+01 0.00000E+00
 -1      1926 3.19452E+01 4.03704E+01 0.00000E+00
 -1      1927 3.36339E+01 4.30891E+01 0.00000E+00
 -1      1928 2.47126E+01 3.28780E+01 0.00000E+00
 -1      1929 2.69237E+01 3.46205E+01 0.00000E+00
 -1      1930 2.20134E+01 3.42335E+01 0.00000E+00
 -1      1931 2.90166E+01 3.59078E+01 0.00000E+00
 -1      1932 3.10257E+01 3.80430E+01 0.00000E+00
 -1      1933 2.94211E+01 4.06642E+01 0.00000E+00
 -1      1934 2.64088E+01 3.70494E+01 0.00000E+00
 -1      1935 1.99892E+01 4.21719E+01 0.00000E+00
 -1      1936 1.73595E+01 4.11611E+01 0.00000E+00
 -1      1937 2.21281E+01 4.03275E+01 0.00000E+00
 -1      1938 7.90095E+00 2.63948E+01 0.00000E+00
 -1      1939 8.23927E+00 2.28634E+01 0.00000E+00
 -1      1940 3.09365E+01 4.57820E+01 0.00000E+00
 -1      1941 2.80923E+01 4.50447E+01 0.00000E+00
 -1      1942 3.70260E+01 4.67047E+01 0.00000E+00
 -1      1943 6.73883E+00 3.83637E+01 0.00000E+00
 -1      1944 6.70464E+00 3.53584E+01 0.00000E+00
 -1      1945 9.33086E+00 3.39837E+01 0.00000E+00
 -1      1946 9.35624E+00 3.92081E+01 0.00000E+00
 -1      1947 3.42297E+01 4.58796E+01 0.00000E+00
 -1      1948 1.57477E+01 2.57114E+01 0.00000E+00
 -1      1949 1.79533E+01 2.76545E+01 0.00000E+00
 -1      1950 1.29389E+01 2.69488E+01 0.00000E+00
 -1      1951 1.46732E+01 3.97425E+01 0.00000E+00
 -1      1952 1.20714E+01 3.90048E+01 0.00000E+00
 -1      1953 1.15003E+01 3.64609E+01 0.00000E+00
 -1      1954 1.69018E+01 3.76762E+01 0.00000E+00
 -1      1955 6.24100E+00 1.20623E+01 0.00000E+00
 -1      1956 5.99071E+00 1.47582E+01 0.00000E+00
 -1      1957 1.74670E+01 3.08387E+01 0.00000E+00
 -1      1958 1.02656E+01 2.81142E+01 0.00000E+00
 -1      1959 8.87644E+00 1.96214E+01 0.00000E+00
 -1      1960 7.03358E+00 1.74639E+01 0.00000E+00
 -1      1961 2.75043E+01 4.22759E+01 0.00000E+00
 -1      1962 1.25499E+01 3.01378E+01 0.00000E+00
 -1      1963 1.20461E+01 3.37804E+01 0.00000E+00
 -1      1964 1.47193E+01 3.26150E+01 0.00000E+00
 -1      1965 2.44919E+01 3.86612E+01 0.00000E+00
 -1      1966 2.19520E+01 3.74284E+01 0.00000E+00
 -1      1967 1.96495E+01 3.58999E+01 0.00000E+00
 -1      1968 1.69632E+01 3.44813E+01 0.00000E+00
 -1      1969 2.65849E+01 3.99485E+01 0.00000E+00
 -1      1970 2.18182E+00 5.14286E+00 5.00000E+00
 -1      1971 1.08065E+01 1.28603E+01 5.00000E+00
 -1      1972 8.62471E+00 1.08603E+01 5.00000E+00
 -1      1973 1.90560E+01 2.11125E+01 5.00000E+00
 -1      1974 1.68742E+01 1.91125E+01 5.00000E+00
 -1      1975 2.78118E+01 2.89355E+01 5.00000E+00
 -1      1976 2.56300E+01 2.69355E+01 5.00000E+00
 -1      1977 3.62979E+01 3.71167E+01 5.00000E+00
 -1      1978 3.41161E+01 3.51167E+01 5.00000E+00
 -1      1979 4.53132E+01 4.51352E+01 5.00000E+00
 -1      1980 4.31313E+01 4.31352E+01 5.00000E+00
 -1      1981 4.53132E+01 4.78019E+01 5.00000E+00
 -1      1982 4.53333E+01 5.64444E+01 5.00000E+00
 -1      1983 3.98753E+01 5.43838E+01 5.00000E+00
 -1      1984 4.25420E+01 5.52727E+01 5.00000E+00
 -1      1985 2.87328E+01 5.12490E+01 5.00000E+00
 -1      1986 3.13995E+01 5.21379E+01 5.00000E+00
 -1      1987 1.84551E+01 4.71261E+01 5.00000E+00
 -1      1988 2.11218E+01 4.80150E+01 5.00000E+00
 -1      1989 7.67031E+00 4.37358E+01 5.00000E+00
 -1      1990 1.03370E+01 4.46247E+01 5.00000E+00
 -1      1991 2.35931E+00 4.20217E+01 5.00000E+00
 -1      1992 5.02597E+00 4.29106E+01 5.00000E+00
 -1      1993 7.36295E+00 4.08687E+01 5.00000E+00
 -1      1994 2.35931E+00 3.88789E+01 5.00000E+00
 -1      1995 2.47341E+00 2.65676E+01 5.00000E+00
 -1      1996 2.47341E+00 2.97105E+01 5.00000E+00
 -1      1997 2.05266E+00 1.42820E+01 5.00000E+00
 -1      1998 2.05266E+00 1.74249E+01 5.00000E+00
 -1      1999 2.14288E+00 8.18827E+00 5.00000E+00
 -1      2000 2.14288E+00 1.13311E+01 5.00000E+00
 -1      2001 4.19554E+00 1.30417E+01 5.00000E+00
 -1      2002 4.32470E+00 7.04541E+00 5.00000E+00
 -1      2003 4.52087E+01 5.34949E+01 5.00000E+00
 -1      2004 1.28318E+01 1.49335E+01 5.00000E+00
 -1      2005 1.05474E+01 1.57938E+01 5.00000E+00
 -1      2006 1.50136E+01 1.69335E+01 5.00000E+00
 -1      2007 6.50652E+00 9.04541E+00 5.00000E+00
 -1      2008 1.44333E+01 2.00460E+01 5.00000E+00
 -1      2009 2.34156E+01 2.50942E+01 5.00000E+00
 -1      2010 2.12338E+01 2.30942E+01 5.00000E+00
 -1      2011 3.21014E+01 3.30026E+01 5.00000E+00
 -1      2012 2.99196E+01 3.10026E+01 5.00000E+00
 -1      2013 4.07553E+01 4.12061E+01 5.00000E+00
 -1      2014 3.85735E+01 3.92061E+01 5.00000E+00
 -1      2015 4.52087E+01 5.08283E+01 5.00000E+00
 -1      2016 3.69599E+01 5.29456E+01 5.00000E+00
 -1      2017 3.95019E+01 5.08850E+01 5.00000E+00
 -1      2018 3.42932E+01 5.20567E+01 5.00000E+00
 -1      2019 3.36927E+01 4.95280E+01 5.00000E+00
 -1      2020 2.37848E+01 4.90718E+01 5.00000E+00
 -1      2021 2.64515E+01 4.99607E+01 5.00000E+00
 -1      2022 1.30113E+01 4.53204E+01 5.00000E+00
 -1      2023 1.56780E+01 4.62093E+01 5.00000E+00
 -1      2024 2.30100E+00 3.27386E+01 5.00000E+00
 -1      2025 2.30100E+00 3.58814E+01 5.00000E+00
 -1      2026 2.23840E+00 2.04514E+01 5.00000E+00
 -1      2027 2.23840E+00 2.35942E+01 5.00000E+00
 -1      2028 4.29106E+00 1.90191E+01 5.00000E+00
 -1      2029 1.84717E+01 2.42067E+01 5.00000E+00
 -1      2030 2.71859E+01 3.19381E+01 5.00000E+00
 -1      2031 3.55987E+01 4.03227E+01 5.00000E+00
 -1      2032 1.81331E+01 4.40020E+01 5.00000E+00
 -1      2033 4.71181E+00 2.50190E+01 5.00000E+00
 -1      2034 4.66030E+00 3.70460E+01 5.00000E+00
 -1      2035 4.02503E+01 4.43413E+01 5.00000E+00
 -1      2036 3.13084E+01 3.61192E+01 5.00000E+00
 -1      2037 2.28638E+01 2.80297E+01 5.00000E+00
 -1      2038 4.25218E+01 4.92968E+01 5.00000E+00
 -1      2039 2.85176E+01 4.83208E+01 5.00000E+00
 -1      2040 1.26817E+01 4.23895E+01 5.00000E+00
 -1      2041 2.35732E+01 4.59757E+01 5.00000E+00
 -1      2042 4.77440E+00 3.10205E+01 5.00000E+00
 -1      2043 6.40396E+00 1.19057E+01 5.00000E+00
 -1      2044 3.96064E+01 4.78586E+01 5.00000E+00
 -1      2045 3.49146E+01 4.33622E+01 5.00000E+00
 -1      2046 3.26390E+01 4.12728E+01 5.00000E+00
 -1      2047 2.23643E+01 3.11484E+01 5.00000E+00
 -1      2048 2.01499E+01 2.93071E+01 5.00000E+00
 -1      2049 1.76844E+01 4.09560E+01 5.00000E+00
 -1      2050 2.04615E+01 4.18728E+01 5.00000E+00
 -1      2051 2.99703E+01 3.93533E+01 5.00000E+00
 -1      2052 2.79557E+01 3.72392E+01 5.00000E+00
 -1      2053 2.92863E+01 4.23927E+01 5.00000E+00
 -1      2054 2.90956E+01 4.56724E+01 5.00000E+00
 -1      2055 3.13769E+01 4.69607E+01 5.00000E+00
 -1      2056 3.42707E+01 4.68795E+01 5.00000E+00
 -1      2057 7.37217E+00 2.95592E+01 5.00000E+00
 -1      2058 7.19975E+00 3.25873E+01 5.00000E+00
 -1      2059 2.37639E+01 4.26960E+01 5.00000E+00
 -1      2060 2.64269E+01 4.37528E+01 5.00000E+00
 -1      2061 3.72304E+01 4.59295E+01 5.00000E+00
 -1      2062 6.76605E+00 3.83155E+01 5.00000E+00
 -1      2063 9.41039E+00 3.91407E+01 5.00000E+00
 -1      2064 6.70774E+00 3.53180E+01 5.00000E+00
 -1      2065 1.78762E+01 2.74289E+01 5.00000E+00
 -1      2066 1.56984E+01 2.54471E+01 5.00000E+00
 -1      2067 1.73767E+01 3.05476E+01 5.00000E+00
 -1      2068 2.67145E+01 3.46116E+01 5.00000E+00
 -1      2069 2.46067E+01 3.25446E+01 5.00000E+00
 -1      2070 2.53764E+01 3.78456E+01 5.00000E+00
 -1      2071 2.18929E+01 3.38219E+01 5.00000E+00
 -1      2072 1.21553E+01 3.88919E+01 5.00000E+00
 -1      2073 1.48296E+01 3.95876E+01 5.00000E+00
 -1      2074 1.71580E+01 3.74584E+01 5.00000E+00
 -1      2075 1.15584E+01 3.63387E+01 5.00000E+00
 -1      2076 7.38522E+00 2.31384E+01 5.00000E+00
 -1      2077 7.62023E+00 2.61118E+01 5.00000E+00
 -1      2078 9.30550E+00 3.38567E+01 5.00000E+00
 -1      2079 6.31373E+00 1.48566E+01 5.00000E+00
 -1      2080 1.26983E+01 2.64503E+01 5.00000E+00
 -1      2081 1.32938E+01 2.32281E+01 5.00000E+00
 -1      2082 6.07900E+00 1.74289E+01 5.00000E+00
 -1      2083 6.26475E+00 2.04554E+01 5.00000E+00
 -1      2084 9.17316E+00 2.15482E+01 5.00000E+00
 -1      2085 8.28742E+00 1.62928E+01 5.00000E+00
 -1      2086 1.00456E+01 2.76786E+01 5.00000E+00
 -1      2087 1.14332E+01 2.10492E+01 5.00000E+00
 -1      2088 2.20740E+01 3.70224E+01 5.00000E+00
 -1      2089 1.98316E+01 3.56263E+01 5.00000E+00
 -1      2090 2.33152E+01 3.96500E+01 5.00000E+00
 -1      2091 1.69769E+01 3.42579E+01 5.00000E+00
 -1      2092 1.03127E+01 1.83661E+01 5.00000E+00
 -1      2093 1.24502E+01 2.98977E+01 5.00000E+00
 -1      2094 1.47031E+01 3.23797E+01 5.00000E+00
 -1      2095 1.20504E+01 3.36080E+01 5.00000E+00
 -1      2096 3.67568E+01 4.63167E+01 2.50000E+00
 -1      2097 3.44410E+01 4.37495E+01 2.50000E+00
 -1      2098 3.74007E+01 4.27994E+01 2.50000E+00
 -1      2099 2.06665E+01 2.62625E+01 2.50000E+00
 -1      2100 2.28808E+01 2.81038E+01 2.50000E+00
 -1      2101 2.01670E+01 2.93811E+01 2.50000E+00
 -1      2102 1.67084E+01 4.52099E+01 1.25687E+00
 -1      2103 1.56396E+01 4.63061E+01 2.50880E+00
 -1      2104 1.40621E+01 4.43236E+01 1.25192E+00
 -1      2105 1.71429E+01 4.82629E+01 1.25687E+00
 -1      2106 1.44966E+01 4.73765E+01 1.25192E+00
 -1      2107 3.98519E+01 4.31649E+01 1.24775E+00
 -1      2108 4.03255E+01 4.27776E+01 3.74775E+00
 -1      2109 3.97767E+01 4.47286E+01 2.50000E+00
 -1      2110 4.27015E+01 4.47068E+01 3.74775E+00
 -1      2111 3.54147E+00 3.56929E+01 3.75098E+00
 -1      2112 2.42081E+00 3.50272E+01 2.50391E+00
 -1      2113 3.48133E+00 3.33828E+01 3.75293E+00
 -1      2114 4.61309E+00 3.40506E+01 2.50000E+00
 -1      2115 3.55256E+00 3.56950E+01 1.25098E+00
 -1      2116 3.49243E+00 3.33849E+01 1.25293E+00
 -1      2117 2.50937E+01 2.99324E+01 2.50000E+00
 -1      2118 2.23799E+01 3.12098E+01 2.50000E+00
 -1      2119 2.60401E+01 4.70652E+01 2.50000E+00
 -1      2120 2.54521E+01 4.42964E+01 2.50000E+00
 -1      2121 2.27891E+01 4.32396E+01 2.50000E+00
 -1      2122 2.33771E+01 4.60084E+01 2.50000E+00
 -1      2123 1.22910E+00 2.11434E+01 1.23157E+00
 -1      2124 4.14105E+00 2.21156E+01 1.23157E+00
 -1      2125 4.43532E+00 1.97875E+01 1.23727E+00
 -1      2126 1.52337E+00 1.88153E+01 1.23727E+00
 -1      2127 2.75246E+00 2.11015E+01 2.46884E+00
 -1      2128 3.97712E+01 5.12730E+01 2.50000E+00
 -1      2129 3.68557E+01 4.98348E+01 2.50000E+00
 -1      2130 3.98756E+01 4.82466E+01 2.50000E+00
 -1      2131 8.79929E+00 3.66258E+01 2.50000E+00
 -1      2132 9.34505E+00 3.39453E+01 2.50000E+00
 -1      2133 6.71884E+00 3.53201E+01 2.50000E+00
 -1      2134 4.25892E+01 4.63643E+01 2.50000E+00
 -1      2135 1.78932E+01 2.75029E+01 2.50000E+00
 -1      2136 1.18034E+00 3.52157E+01 3.75293E+00
 -1      2137 1.24047E+00 3.75258E+01 3.75098E+00
 -1      2138 1.25212E+00 1.62955E+01 3.79648E+00
 -1      2139 1.25212E+00 1.62955E+01 1.29648E+00
 -1      2140 2.77549E+00 1.62537E+01 2.53375E+00
 -1      2141 1.52337E+00 1.88153E+01 3.73727E+00
 -1      2142 7.21085E+00 3.25893E+01 2.50000E+00
 -1      2143 1.51630E+01 2.88209E+01 2.50000E+00
 -1      2144 1.74368E+01 3.06991E+01 2.50000E+00
 -1      2145 1.47632E+01 3.25312E+01 2.50000E+00
 -1      2146 1.56876E+01 2.55599E+01 2.50000E+00
 -1      2147 1.32830E+01 2.33408E+01 2.50000E+00
 -1      2148 1.62831E+01 2.23376E+01 2.50000E+00
 -1      2149 1.98619E+01 3.57659E+01 2.50000E+00