    1C
    1UUSER                                                              
    1UDATE              15.may.2021                                     
    1UTIME              14:51:02                                        
    1UHOST                                                              
    1UPGM               CalculiX                                        
    1UVERSION           Version 2.17                             
    1UCOMPILETIME       Thu Jul 23 21:43:50 CEST 2020                    
    1UDIR                                                               
    1UDBN                                                               
    1UMAT    1STEEL                                                     
    1UMAT    2CONTACT                                                   
    2C                          4156                                     1
 -1         1 4.00000E+01 0.00000E+00 0.00000E+00
 -1         2 0.00000E+00 0.00000E+00 0.00000E+00
 -1         3 0.00000E+00-2.00000E+01 0.00000E+00
 -1         4 4.00000E+01-2.00000E+01 0.00000E+00
 -1         5 0.00000E+00 0.00000E+00 0.00000E+00
 -1         6 1.00000E+01 1.00000E+01 0.00000E+00
 -1         7 0.00000E+00 1.00000E+01 0.00000E+00
 -1         9 3.71577E+01 0.00000E+00 0.00000E+00
 -1        10 3.35525E+01 0.00000E+00 0.00000E+00
 -1        11 3.02750E+01 0.00000E+00 0.00000E+00
 -1        12 2.72954E+01 0.00000E+00 0.00000E+00
 -1        13 2.45868E+01 0.00000E+00 0.00000E+00
 -1        14 2.21243E+01 0.00000E+00 0.00000E+00
 -1        15 1.98858E+01 0.00000E+00 0.00000E+00
 -1        16 1.78507E+01 0.00000E+00 0.00000E+00
 -1        17 1.60006E+01 0.00000E+00 0.00000E+00
 -1        18 1.43187E+01 0.00000E+00 0.00000E+00
 -1        19 1.27898E+01 0.00000E+00 0.00000E+00
 -1        20 1.13998E+01 0.00000E+00 0.00000E+00
 -1        21 1.01362E+01 0.00000E+00 0.00000E+00
 -1        22 8.98743E+00 0.00000E+00 0.00000E+00
 -1        23 7.94312E+00 0.00000E+00 0.00000E+00
 -1        24 6.99375E+00 0.00000E+00 0.00000E+00
 -1        25 6.13068E+00 0.00000E+00 0.00000E+00
 -1        26 5.34607E+00 0.00000E+00 0.00000E+00
 -1        27 4.63279E+00 0.00000E+00 0.00000E+00
 -1        28 3.98436E+00 0.00000E+00 0.00000E+00
 -1        29 3.39487E+00 0.00000E+00 0.00000E+00
 -1        30 2.85897E+00 0.00000E+00 0.00000E+00
 -1        31 2.37179E+00 0.00000E+00 0.00000E+00
 -1        32 1.92890E+00 0.00000E+00 0.00000E+00
 -1        33 1.52628E+00 0.00000E+00 0.00000E+00
 -1        34 1.16025E+00 0.00000E+00 0.00000E+00
 -1        35 8.27500E-01 0.00000E+00 0.00000E+00
 -1        36 5.25000E-01 0.00000E+00 0.00000E+00
 -1        37 2.50000E-01 0.00000E+00 0.00000E+00
 -1        38 0.00000E+00-2.50000E-01 0.00000E+00
 -1        39 0.00000E+00-5.25703E-01 0.00000E+00
 -1        40 0.00000E+00-8.28584E-01 0.00000E+00
 -1        41 0.00000E+00-1.16182E+00 0.00000E+00
 -1        42 0.00000E+00-1.52845E+00 0.00000E+00
 -1        43 0.00000E+00-1.93185E+00 0.00000E+00
 -1        44 0.00000E+00-2.37570E+00 0.00000E+00
 -1        45 0.00000E+00-2.86408E+00 0.00000E+00
 -1        46 0.00000E+00-3.40146E+00 0.00000E+00
 -1        47 0.00000E+00-3.99279E+00 0.00000E+00
 -1        48 0.00000E+00-4.64350E+00 0.00000E+00
 -1        49 0.00000E+00-5.35957E+00 0.00000E+00
 -1        50 0.00000E+00-6.14762E+00 0.00000E+00
 -1        51 0.00000E+00-7.01491E+00 0.00000E+00
 -1        52 0.00000E+00-7.96946E+00 0.00000E+00
 -1        53 0.00000E+00-9.02012E+00 0.00000E+00
 -1        54 0.00000E+00-1.01766E+01 0.00000E+00
 -1        55 0.00000E+00-1.14497E+01 0.00000E+00
 -1        56 0.00000E+00-1.28512E+01 0.00000E+00
 -1        57 0.00000E+00-1.43943E+01 0.00000E+00
 -1        58 0.00000E+00-1.60933E+01 0.00000E+00
 -1        59 0.00000E+00-1.79649E+01 0.00000E+00
 -1        60 2.50000E-01-2.00000E+01 0.00000E+00
 -1        61 5.25000E-01-2.00000E+01 0.00000E+00
 -1        62 8.27500E-01-2.00000E+01 0.00000E+00
 -1        63 1.16025E+00-2.00000E+01 0.00000E+00
 -1        64 1.52628E+00-2.00000E+01 0.00000E+00
 -1        65 1.92890E+00-2.00000E+01 0.00000E+00
 -1        66 2.37179E+00-2.00000E+01 0.00000E+00
 -1        67 2.85897E+00-2.00000E+01 0.00000E+00
 -1        68 3.39487E+00-2.00000E+01 0.00000E+00
 -1        69 3.98436E+00-2.00000E+01 0.00000E+00
 -1        70 4.63279E+00-2.00000E+01 0.00000E+00
 -1        71 5.34607E+00-2.00000E+01 0.00000E+00
 -1        72 6.13068E+00-2.00000E+01 0.00000E+00
 -1        73 6.99375E+00-2.00000E+01 0.00000E+00
 -1        74 7.94312E+00-2.00000E+01 0.00000E+00
 -1        75 8.98743E+00-2.00000E+01 0.00000E+00
 -1        76 1.01362E+01-2.00000E+01 0.00000E+00
 -1        77 1.13998E+01-2.00000E+01 0.00000E+00
 -1        78 1.27898E+01-2.00000E+01 0.00000E+00
 -1        79 1.43187E+01-2.00000E+01 0.00000E+00
 -1        80 1.60006E+01-2.00000E+01 0.00000E+00
 -1        81 1.78507E+01-2.00000E+01 0.00000E+00
 -1        82 1.98858E+01-2.00000E+01 0.00000E+00
 -1        83 2.21243E+01-2.00000E+01 0.00000E+00
 -1        84 2.45868E+01-2.00000E+01 0.00000E+00
 -1        85 2.72954E+01-2.00000E+01 0.00000E+00
 -1        86 3.02750E+01-2.00000E+01 0.00000E+00
 -1        87 3.35525E+01-2.00000E+01 0.00000E+00
 -1        88 3.71577E+01-2.00000E+01 0.00000E+00
 -1        89 4.00000E+01-1.79649E+01 0.00000E+00
 -1        90 4.00000E+01-1.60933E+01 0.00000E+00
 -1        91 4.00000E+01-1.43943E+01 0.00000E+00
 -1        92 4.00000E+01-1.28512E+01 0.00000E+00
 -1        93 4.00000E+01-1.14497E+01 0.00000E+00
 -1        94 4.00000E+01-1.01766E+01 0.00000E+00
 -1        95 4.00000E+01-9.02012E+00 0.00000E+00
 -1        96 4.00000E+01-7.96946E+00 0.00000E+00
 -1        97 4.00000E+01-7.01491E+00 0.00000E+00
 -1        98 4.00000E+01-6.14762E+00 0.00000E+00
 -1        99 4.00000E+01-5.35957E+00 0.00000E+00
 -1       100 4.00000E+01-4.64350E+00 0.00000E+00
 -1       101 4.00000E+01-3.99279E+00 0.00000E+00
 -1       102 4.00000E+01-3.40146E+00 0.00000E+00
 -1       103 4.00000E+01-2.86408E+00 0.00000E+00
 -1       104 4.00000E+01-2.37570E+00 0.00000E+00
 -1       105 4.00000E+01-1.93185E+00 0.00000E+00
 -1       106 4.00000E+01-1.52845E+00 0.00000E+00
 -1       107 4.00000E+01-1.16182E+00 0.00000E+00
 -1       108 4.00000E+01-8.28584E-01 0.00000E+00
 -1       109 4.00000E+01-5.25703E-01 0.00000E+00
 -1       110 4.00000E+01-2.50000E-01 0.00000E+00
 -1       111 1.24997E-01 7.81240E-04 0.00000E+00
 -1       112 2.62470E-01 3.44511E-03 0.00000E+00
 -1       113 4.13632E-01 8.55823E-03 0.00000E+00
 -1       114 5.79800E-01 1.68225E-02 0.00000E+00
 -1       115 7.62397E-01 2.91048E-02 0.00000E+00
 -1       116 9.62957E-01 4.64723E-02 0.00000E+00
 -1       117 1.18312E+00 7.02351E-02 0.00000E+00
 -1       118 1.42462E+00 1.01998E-01 0.00000E+00
 -1       119 1.68930E+00 1.43719E-01 0.00000E+00
 -1       120 1.97903E+00 1.97783E-01 0.00000E+00
 -1       121 2.29574E+00 2.67087E-01 0.00000E+00
 -1       122 2.64132E+00 3.55134E-01 0.00000E+00
 -1       123 3.01756E+00 4.66148E-01 0.00000E+00
 -1       124 3.42604E+00 6.05201E-01 0.00000E+00
 -1       125 3.86797E+00 7.78352E-01 0.00000E+00
 -1       126 4.34400E+00 9.92798E-01 0.00000E+00
 -1       127 4.85390E+00 1.25702E+00 0.00000E+00
 -1       128 5.39623E+00 1.58093E+00 0.00000E+00
 -1       129 5.96785E+00 1.97599E+00 0.00000E+00
 -1       130 6.56325E+00 2.45522E+00 0.00000E+00
 -1       131 7.17378E+00 3.03316E+00 0.00000E+00
 -1       132 7.78664E+00 3.72559E+00 0.00000E+00
 -1       133 8.38371E+00 4.54900E+00 0.00000E+00
 -1       134 8.94010E+00 5.51953E+00 0.00000E+00
 -1       135 9.42267E+00 6.65139E+00 0.00000E+00
 -1       136 9.78852E+00 7.95430E+00 0.00000E+00
 -1       137 9.98373E+00 9.42984E+00 0.00000E+00
 -1       138 9.87500E+00 1.00000E+01 0.00000E+00
 -1       139 9.73715E+00 1.00000E+01 0.00000E+00
 -1       140 9.58571E+00 1.00000E+01 0.00000E+00
 -1       141 9.41909E+00 1.00000E+01 0.00000E+00
 -1       142 9.23577E+00 1.00000E+01 0.00000E+00
 -1       143 9.03407E+00 1.00000E+01 0.00000E+00
 -1       144 8.81215E+00 1.00000E+01 0.00000E+00
 -1       145 8.56796E+00 1.00000E+01 0.00000E+00
 -1       146 8.29927E+00 1.00000E+01 0.00000E+00
 -1       147 8.00361E+00 1.00000E+01 0.00000E+00
 -1       148 7.67825E+00 1.00000E+01 0.00000E+00
 -1       149 7.32021E+00 1.00000E+01 0.00000E+00
 -1       150 6.92619E+00 1.00000E+01 0.00000E+00
 -1       151 6.49254E+00 1.00000E+01 0.00000E+00
 -1       152 6.01527E+00 1.00000E+01 0.00000E+00
 -1       153 5.48994E+00 1.00000E+01 0.00000E+00
 -1       154 4.91170E+00 1.00000E+01 0.00000E+00
 -1       155 4.27515E+00 1.00000E+01 0.00000E+00
 -1       156 3.57439E+00 1.00000E+01 0.00000E+00
 -1       157 2.80286E+00 1.00000E+01 0.00000E+00
 -1       158 1.95334E+00 1.00000E+01 0.00000E+00
 -1       159 1.01753E+00 1.00000E+01 0.00000E+00
 -1       160 0.00000E+00 1.25000E-01 0.00000E+00
 -1       161 0.00000E+00 2.62851E-01 0.00000E+00
 -1       162 0.00000E+00 4.14292E-01 0.00000E+00
 -1       163 0.00000E+00 5.80909E-01 0.00000E+00
 -1       164 0.00000E+00 7.64227E-01 0.00000E+00
 -1       165 0.00000E+00 9.65926E-01 0.00000E+00
 -1       166 0.00000E+00 1.18785E+00 0.00000E+00
 -1       167 0.00000E+00 1.43204E+00 0.00000E+00
 -1       168 0.00000E+00 1.70073E+00 0.00000E+00
 -1       169 0.00000E+00 1.99639E+00 0.00000E+00
 -1       170 0.00000E+00 2.32175E+00 0.00000E+00
 -1       171 0.00000E+00 2.67979E+00 0.00000E+00
 -1       172 0.00000E+00 3.07381E+00 0.00000E+00
 -1       173 0.00000E+00 3.50746E+00 0.00000E+00
 -1       174 0.00000E+00 3.98473E+00 0.00000E+00
 -1       175 0.00000E+00 4.51006E+00 0.00000E+00
 -1       176 0.00000E+00 5.08830E+00 0.00000E+00
 -1       177 0.00000E+00 5.72485E+00 0.00000E+00
 -1       178 0.00000E+00 6.42561E+00 0.00000E+00
 -1       179 0.00000E+00 7.19714E+00 0.00000E+00
 -1       180 0.00000E+00 8.04666E+00 0.00000E+00
 -1       181 0.00000E+00 8.98247E+00 0.00000E+00
 -1       182 1.23434E-01 1.25771E-01 0.00000E+00
 -1       183 1.21711E-01 2.63612E-01 0.00000E+00
 -1       184 1.19818E-01 4.15041E-01 0.00000E+00
 -1       185 1.17736E-01 5.81645E-01 0.00000E+00
 -1       186 1.15444E-01 7.64949E-01 0.00000E+00
 -1       187 1.12923E-01 9.66631E-01 0.00000E+00
 -1       188 1.10149E-01 1.18854E+00 0.00000E+00
 -1       189 1.07097E-01 1.43271E+00 0.00000E+00
 -1       190 1.03738E-01 1.70138E+00 0.00000E+00
 -1       191 1.00042E-01 1.99702E+00 0.00000E+00
 -1       192 9.59757E-02 2.32235E+00 0.00000E+00
 -1       193 9.15003E-02 2.68036E+00 0.00000E+00
 -1       194 8.65751E-02 3.07435E+00 0.00000E+00
 -1       195 8.11547E-02 3.50796E+00 0.00000E+00
 -1       196 7.51889E-02 3.98520E+00 0.00000E+00
 -1       197 6.86225E-02 4.51049E+00 0.00000E+00
 -1       198 6.13946E-02 5.08869E+00 0.00000E+00
 -1       199 5.34380E-02 5.72518E+00 0.00000E+00
 -1       200 4.46787E-02 6.42589E+00 0.00000E+00
 -1       201 3.50348E-02 7.19736E+00 0.00000E+00
 -1       202 2.44161E-02 8.04681E+00 0.00000E+00
 -1       203 1.27188E-02 8.98254E+00 0.00000E+00
 -1       204 2.59189E-01 1.28402E-01 0.00000E+00
 -1       205 2.55571E-01 2.66206E-01 0.00000E+00
 -1       206 2.51596E-01 4.17594E-01 0.00000E+00
 -1       207 2.47223E-01 5.84154E-01 0.00000E+00
 -1       208 2.42411E-01 7.67409E-01 0.00000E+00
 -1       209 2.37117E-01 9.69038E-01 0.00000E+00
 -1       210 2.31292E-01 1.19089E+00 0.00000E+00
 -1       211 2.24883E-01 1.43499E+00 0.00000E+00
 -1       212 2.17831E-01 1.70359E+00 0.00000E+00
 -1       213 2.10071E-01 1.99915E+00 0.00000E+00
 -1       214 2.01531E-01 2.32439E+00 0.00000E+00
 -1       215 1.92134E-01 2.68231E+00 0.00000E+00
 -1       216 1.81792E-01 3.07620E+00 0.00000E+00
 -1       217 1.70410E-01 3.50969E+00 0.00000E+00
 -1       218 1.57883E-01 3.98680E+00 0.00000E+00
 -1       219 1.44094E-01 4.51195E+00 0.00000E+00
 -1       220 1.28917E-01 5.09000E+00 0.00000E+00
 -1       221 1.12210E-01 5.72632E+00 0.00000E+00
 -1       222 9.38169E-02 6.42684E+00 0.00000E+00
 -1       223 7.35665E-02 7.19811E+00 0.00000E+00
 -1       224 5.12693E-02 8.04733E+00 0.00000E+00
 -1       225 2.67072E-02 8.98282E+00 0.00000E+00
 -1       226 4.08462E-01 1.33451E-01 0.00000E+00
 -1       227 4.02760E-01 2.71185E-01 0.00000E+00
 -1       228 3.96496E-01 4.22496E-01 0.00000E+00
 -1       229 3.89604E-01 5.88970E-01 0.00000E+00
 -1       230 3.82021E-01 7.72132E-01 0.00000E+00
 -1       231 3.73678E-01 9.73657E-01 0.00000E+00
 -1       232 3.64499E-01 1.19539E+00 0.00000E+00
 -1       233 3.54398E-01 1.43937E+00 0.00000E+00
 -1       234 3.43284E-01 1.70783E+00 0.00000E+00
 -1       235 3.31055E-01 2.00324E+00 0.00000E+00
 -1       236 3.17597E-01 2.32832E+00 0.00000E+00
 -1       237 3.02787E-01 2.68605E+00 0.00000E+00
 -1       238 2.86489E-01 3.07974E+00 0.00000E+00
 -1       239 2.68552E-01 3.51301E+00 0.00000E+00
 -1       240 2.48811E-01 3.98988E+00 0.00000E+00
 -1       241 2.27082E-01 4.51476E+00 0.00000E+00
 -1       242 2.03163E-01 5.09251E+00 0.00000E+00
 -1       243 1.76834E-01 5.72851E+00 0.00000E+00
 -1       244 1.47848E-01 6.42867E+00 0.00000E+00
 -1       245 1.15935E-01 7.19954E+00 0.00000E+00
 -1       246 8.07963E-02 8.04833E+00 0.00000E+00
 -1       247 4.20885E-02 8.98334E+00 0.00000E+00
 -1       248 5.72552E-01 1.41612E-01 0.00000E+00
 -1       249 5.64560E-01 2.79232E-01 0.00000E+00
 -1       250 5.55779E-01 4.30417E-01 0.00000E+00
 -1       251 5.46119E-01 5.96754E-01 0.00000E+00
 -1       252 5.35490E-01 7.79764E-01 0.00000E+00
 -1       253 5.23795E-01 9.81123E-01 0.00000E+00
 -1       254 5.10928E-01 1.20268E+00 0.00000E+00
 -1       255 4.96770E-01 1.44645E+00 0.00000E+00
 -1       256 4.81191E-01 1.71469E+00 0.00000E+00
 -1       257 4.64049E-01 2.00986E+00 0.00000E+00
 -1       258 4.45185E-01 2.33466E+00 0.00000E+00
 -1       259 4.24426E-01 2.69210E+00 0.00000E+00
 -1       260 4.01580E-01 3.08546E+00 0.00000E+00
 -1       261 3.76437E-01 3.51838E+00 0.00000E+00
 -1       262 3.48765E-01 3.99485E+00 0.00000E+00
 -1       263 3.18307E-01 4.51929E+00 0.00000E+00
 -1       264 2.84780E-01 5.09657E+00 0.00000E+00
 -1       265 2.47873E-01 5.73204E+00 0.00000E+00
 -1       266 2.07243E-01 6.43162E+00 0.00000E+00
 -1       267 1.62510E-01 7.20186E+00 0.00000E+00
 -1       268 1.13255E-01 8.04995E+00 0.00000E+00
 -1       269 5.89966E-02 8.98418E+00 0.00000E+00
 -1       270 7.52867E-01 1.53741E-01 0.00000E+00
 -1       271 7.42357E-01 2.91191E-01 0.00000E+00
 -1       272 7.30811E-01 4.42191E-01 0.00000E+00
 -1       273 7.18109E-01 6.08323E-01 0.00000E+00
 -1       274 7.04132E-01 7.91108E-01 0.00000E+00
 -1       275 6.88755E-01 9.92219E-01 0.00000E+00
 -1       276 6.71836E-01 1.21350E+00 0.00000E+00
 -1       277 6.53219E-01 1.45698E+00 0.00000E+00
 -1       278 6.32734E-01 1.72489E+00 0.00000E+00
 -1       279 6.10192E-01 2.01969E+00 0.00000E+00
 -1       280 5.85388E-01 2.34409E+00 0.00000E+00
 -1       281 5.58091E-01 2.70109E+00 0.00000E+00
 -1       282 5.28051E-01 3.09397E+00 0.00000E+00
 -1       283 4.94990E-01 3.52635E+00 0.00000E+00
 -1       284 4.58602E-01 4.00224E+00 0.00000E+00
 -1       285 4.18552E-01 4.52604E+00 0.00000E+00
 -1       286 3.74466E-01 5.10260E+00 0.00000E+00
 -1       287 3.25936E-01 5.73729E+00 0.00000E+00
 -1       288 2.72510E-01 6.43602E+00 0.00000E+00
 -1       289 2.13689E-01 7.20530E+00 0.00000E+00
 -1       290 1.48922E-01 8.05235E+00 0.00000E+00
 -1       291 7.75765E-02 8.98543E+00 0.00000E+00
 -1       292 9.50920E-01 1.70891E-01 0.00000E+00
 -1       293 9.37645E-01 3.08102E-01 0.00000E+00
 -1       294 9.23062E-01 4.58839E-01 0.00000E+00
 -1       295 9.07018E-01 6.24682E-01 0.00000E+00
 -1       296 8.89365E-01 8.07148E-01 0.00000E+00
 -1       297 8.69942E-01 1.00791E+00 0.00000E+00
 -1       298 8.48572E-01 1.22880E+00 0.00000E+00
 -1       299 8.25058E-01 1.47186E+00 0.00000E+00
 -1       300 7.99184E-01 1.73930E+00 0.00000E+00
 -1       301 7.70713E-01 2.03359E+00 0.00000E+00
 -1       302 7.39383E-01 2.35743E+00 0.00000E+00
 -1       303 7.04905E-01 2.71380E+00 0.00000E+00
 -1       304 6.66962E-01 3.10600E+00 0.00000E+00
 -1       305 6.25204E-01 3.53763E+00 0.00000E+00
 -1       306 5.79244E-01 4.01269E+00 0.00000E+00
 -1       307 5.28658E-01 4.53557E+00 0.00000E+00
 -1       308 4.72975E-01 5.11113E+00 0.00000E+00
 -1       309 4.11679E-01 5.74471E+00 0.00000E+00
 -1       310 3.44198E-01 6.44222E+00 0.00000E+00
 -1       311 2.69903E-01 7.21017E+00 0.00000E+00
 -1       312 1.88098E-01 8.05574E+00 0.00000E+00
 -1       313 9.79842E-02 8.98719E+00 0.00000E+00
 -1       314 1.16833E+00 1.94357E-01 0.00000E+00
 -1       315 1.15202E+00 3.31240E-01 0.00000E+00
 -1       316 1.13410E+00 4.81617E-01 0.00000E+00
 -1       317 1.11439E+00 6.47064E-01 0.00000E+00
 -1       318 1.09270E+00 8.29095E-01 0.00000E+00
 -1       319 1.06884E+00 1.02938E+00 0.00000E+00
 -1       320 1.04258E+00 1.24974E+00 0.00000E+00
 -1       321 1.01369E+00 1.49222E+00 0.00000E+00
 -1       322 9.81902E-01 1.75902E+00 0.00000E+00
 -1       323 9.46922E-01 2.05261E+00 0.00000E+00
 -1       324 9.08428E-01 2.37568E+00 0.00000E+00
 -1       325 8.66068E-01 2.73120E+00 0.00000E+00
 -1       326 8.19450E-01 3.12246E+00 0.00000E+00
 -1       327 7.68145E-01 3.55306E+00 0.00000E+00
 -1       328 7.11678E-01 4.02698E+00 0.00000E+00
 -1       329 6.49525E-01 4.54862E+00 0.00000E+00
 -1       330 5.81112E-01 5.12280E+00 0.00000E+00
 -1       331 5.05801E-01 5.75487E+00 0.00000E+00
 -1       332 4.22893E-01 6.45072E+00 0.00000E+00
 -1       333 3.31611E-01 7.21683E+00 0.00000E+00
 -1       334 2.31103E-01 8.06038E+00 0.00000E+00
 -1       335 1.20386E-01 8.98961E+00 0.00000E+00
 -1       336 1.40681E+00 2.25723E-01 0.00000E+00
 -1       337 1.38718E+00 3.62168E-01 0.00000E+00
 -1       338 1.36560E+00 5.12064E-01 0.00000E+00
 -1       339 1.34186E+00 6.76982E-01 0.00000E+00
 -1       340 1.31575E+00 8.58430E-01 0.00000E+00
 -1       341 1.28701E+00 1.05807E+00 0.00000E+00
 -1       342 1.25540E+00 1.27773E+00 0.00000E+00
 -1       343 1.22061E+00 1.51943E+00 0.00000E+00
 -1       344 1.18233E+00 1.78538E+00 0.00000E+00
 -1       345 1.14021E+00 2.07803E+00 0.00000E+00
 -1       346 1.09386E+00 2.40006E+00 0.00000E+00
 -1       347 1.04285E+00 2.75445E+00 0.00000E+00
 -1       348 9.86721E-01 3.14446E+00 0.00000E+00
 -1       349 9.24942E-01 3.57368E+00 0.00000E+00
 -1       350 8.56949E-01 4.04609E+00 0.00000E+00
 -1       351 7.82110E-01 4.56605E+00 0.00000E+00
 -1       352 6.99731E-01 5.13840E+00 0.00000E+00
 -1       353 6.09048E-01 5.76845E+00 0.00000E+00
 -1       354 5.09215E-01 6.46207E+00 0.00000E+00
 -1       355 3.99301E-01 7.22573E+00 0.00000E+00
 -1       356 2.78277E-01 8.06658E+00 0.00000E+00
 -1       357 1.44960E-01 8.99284E+00 0.00000E+00
 -1       358 1.66818E+00 2.66922E-01 0.00000E+00
 -1       359 1.64489E+00 4.02792E-01 0.00000E+00
 -1       360 1.61931E+00 5.52056E-01 0.00000E+00
 -1       361 1.59116E+00 7.16279E-01 0.00000E+00
 -1       362 1.56019E+00 8.96963E-01 0.00000E+00
 -1       363 1.52612E+00 1.09576E+00 0.00000E+00
 -1       364 1.48863E+00 1.31450E+00 0.00000E+00
 -1       365 1.44738E+00 1.55518E+00 0.00000E+00
 -1       366 1.40199E+00 1.82001E+00 0.00000E+00
 -1       367 1.35205E+00 2.11142E+00 0.00000E+00
 -1       368 1.29708E+00 2.43210E+00 0.00000E+00
 -1       369 1.23660E+00 2.78499E+00 0.00000E+00
 -1       370 1.17004E+00 3.17335E+00 0.00000E+00
 -1       371 1.09678E+00 3.60077E+00 0.00000E+00
 -1       372 1.01616E+00 4.07118E+00 0.00000E+00
 -1       373 9.27413E-01 4.58896E+00 0.00000E+00
 -1       374 8.29730E-01 5.15889E+00 0.00000E+00
 -1       375 7.22200E-01 5.78629E+00 0.00000E+00
 -1       376 6.03820E-01 6.47698E+00 0.00000E+00
 -1       377 4.73485E-01 7.23743E+00 0.00000E+00
 -1       378 3.29977E-01 8.07473E+00 0.00000E+00
 -1       379 1.71892E-01 8.99709E+00 0.00000E+00
 -1       380 1.95429E+00 3.20311E-01 0.00000E+00
 -1       381 1.92701E+00 4.55436E-01 0.00000E+00
 -1       382 1.89704E+00 6.03881E-01 0.00000E+00
 -1       383 1.86406E+00 7.67203E-01 0.00000E+00
 -1       384 1.82778E+00 9.46896E-01 0.00000E+00
 -1       385 1.78787E+00 1.14460E+00 0.00000E+00
 -1       386 1.74395E+00 1.36214E+00 0.00000E+00
 -1       387 1.69562E+00 1.60150E+00 0.00000E+00
 -1       388 1.64245E+00 1.86488E+00 0.00000E+00
 -1       389 1.58394E+00 2.15469E+00 0.00000E+00
 -1       390 1.51955E+00 2.47361E+00 0.00000E+00
 -1       391 1.44869E+00 2.82457E+00 0.00000E+00
 -1       392 1.37071E+00 3.21080E+00 0.00000E+00
 -1       393 1.28489E+00 3.63587E+00 0.00000E+00
 -1       394 1.19044E+00 4.10370E+00 0.00000E+00
 -1       395 1.08647E+00 4.61864E+00 0.00000E+00
 -1       396 9.72038E-01 5.18545E+00 0.00000E+00
 -1       397 8.46064E-01 5.80940E+00 0.00000E+00
 -1       398 7.07381E-01 6.49631E+00 0.00000E+00
 -1       399 5.54693E-01 7.25258E+00 0.00000E+00
 -1       400 3.86571E-01 8.08529E+00 0.00000E+00
 -1       401 2.01373E-01 9.00259E+00 0.00000E+00
 -1       402 2.26704E+00 3.88748E-01 0.00000E+00
 -1       403 2.23539E+00 5.22918E-01 0.00000E+00
 -1       404 2.20063E+00 6.70314E-01 0.00000E+00
 -1       405 2.16237E+00 8.32481E-01 0.00000E+00
 -1       406 2.12029E+00 1.01090E+00 0.00000E+00
 -1       407 2.07399E+00 1.20721E+00 0.00000E+00
 -1       408 2.02304E+00 1.42321E+00 0.00000E+00
 -1       409 1.96698E+00 1.66088E+00 0.00000E+00
 -1       410 1.90529E+00 1.92239E+00 0.00000E+00
 -1       411 1.83742E+00 2.21016E+00 0.00000E+00
 -1       412 1.76272E+00 2.52682E+00 0.00000E+00
 -1       413 1.68053E+00 2.87530E+00 0.00000E+00
 -1       414 1.59007E+00 3.25880E+00 0.00000E+00
 -1       415 1.49052E+00 3.68086E+00 0.00000E+00
 -1       416 1.38095E+00 4.14539E+00 0.00000E+00
 -1       417 1.26035E+00 4.65669E+00 0.00000E+00
 -1       418 1.12760E+00 5.21949E+00 0.00000E+00
 -1       419 9.81463E-01 5.83903E+00 0.00000E+00
 -1       420 8.20585E-01 6.52108E+00 0.00000E+00
 -1       421 6.43462E-01 7.27200E+00 0.00000E+00
 -1       422 4.48435E-01 8.09883E+00 0.00000E+00
 -1       423 2.33599E-01 9.00964E+00 0.00000E+00
 -1       424 2.60830E+00 4.75695E-01 0.00000E+00
 -1       425 2.57189E+00 6.08650E-01 0.00000E+00
 -1       426 2.53189E+00 7.54713E-01 0.00000E+00
 -1       427 2.48788E+00 9.15413E-01 0.00000E+00
 -1       428 2.43946E+00 1.09222E+00 0.00000E+00
 -1       429 2.38619E+00 1.28676E+00 0.00000E+00
 -1       430 2.32757E+00 1.50080E+00 0.00000E+00
 -1       431 2.26307E+00 1.73632E+00 0.00000E+00
 -1       432 2.19210E+00 1.99547E+00 0.00000E+00
 -1       433 2.11401E+00 2.28063E+00 0.00000E+00
 -1       434 2.02807E+00 2.59443E+00 0.00000E+00
 -1       435 1.93350E+00 2.93975E+00 0.00000E+00
 -1       436 1.82943E+00 3.31978E+00 0.00000E+00
 -1       437 1.71489E+00 3.73803E+00 0.00000E+00
 -1       438 1.58882E+00 4.19835E+00 0.00000E+00
 -1       439 1.45007E+00 4.70502E+00 0.00000E+00
 -1       440 1.29733E+00 5.26274E+00 0.00000E+00
 -1       441 1.12920E+00 5.87667E+00 0.00000E+00
 -1       442 9.44109E-01 6.55255E+00 0.00000E+00
 -1       443 7.40323E-01 7.29668E+00 0.00000E+00
 -1       444 5.15939E-01 8.11603E+00 0.00000E+00
 -1       445 2.68763E-01 9.01860E+00 0.00000E+00
 -1       446 2.97984E+00 5.85321E-01 0.00000E+00
 -1       447 2.93824E+00 7.16746E-01 0.00000E+00
 -1       448 2.89254E+00 8.61128E-01 0.00000E+00
 -1       449 2.84227E+00 1.01998E+00 0.00000E+00
 -1       450 2.78695E+00 1.19475E+00 0.00000E+00
 -1       451 2.72609E+00 1.38705E+00 0.00000E+00
 -1       452 2.65912E+00 1.59863E+00 0.00000E+00
 -1       453 2.58543E+00 1.83143E+00 0.00000E+00
 -1       454 2.50435E+00 2.08760E+00 0.00000E+00
 -1       455 2.41514E+00 2.36948E+00 0.00000E+00
 -1       456 2.31696E+00 2.67967E+00 0.00000E+00
 -1       457 2.20892E+00 3.02102E+00 0.00000E+00
 -1       458 2.09002E+00 3.39667E+00 0.00000E+00
 -1       459 1.95916E+00 3.81010E+00 0.00000E+00
 -1       460 1.81514E+00 4.26513E+00 0.00000E+00
 -1       461 1.65662E+00 4.76597E+00 0.00000E+00
 -1       462 1.48213E+00 5.31726E+00 0.00000E+00
 -1       463 1.29005E+00 5.92413E+00 0.00000E+00
 -1       464 1.07859E+00 6.59223E+00 0.00000E+00
 -1       465 8.45779E-01 7.32780E+00 0.00000E+00
 -1       466 5.89432E-01 8.13772E+00 0.00000E+00
 -1       467 3.07047E-01 9.02990E+00 0.00000E+00
 -1       468 3.38321E+00 7.22636E-01 0.00000E+00
 -1       469 3.33599E+00 8.52145E-01 0.00000E+00
 -1       470 3.28410E+00 9.94420E-01 0.00000E+00
 -1       471 3.22702E+00 1.15095E+00 0.00000E+00
 -1       472 3.16421E+00 1.32318E+00 0.00000E+00
 -1       473 3.09511E+00 1.51267E+00 0.00000E+00
 -1       474 3.01908E+00 1.72116E+00 0.00000E+00
 -1       475 2.93542E+00 1.95057E+00 0.00000E+00
 -1       476 2.84336E+00 2.20300E+00 0.00000E+00
 -1       477 2.74207E+00 2.48077E+00 0.00000E+00
 -1       478 2.63060E+00 2.78644E+00 0.00000E+00
 -1       479 2.50793E+00 3.12281E+00 0.00000E+00
 -1       480 2.37294E+00 3.49298E+00 0.00000E+00
 -1       481 2.22437E+00 3.90039E+00 0.00000E+00
 -1       482 2.06085E+00 4.34878E+00 0.00000E+00
 -1       483 1.88088E+00 4.84231E+00 0.00000E+00
 -1       484 1.68277E+00 5.38556E+00 0.00000E+00
 -1       485 1.46468E+00 5.98358E+00 0.00000E+00
 -1       486 1.22460E+00 6.64193E+00 0.00000E+00
 -1       487 9.60270E-01 7.36677E+00 0.00000E+00
 -1       488 6.69222E-01 8.16488E+00 0.00000E+00
 -1       489 3.48611E-01 9.04405E+00 0.00000E+00
 -1       490 3.81962E+00 8.93623E-01 0.00000E+00
 -1       491 3.76630E+00 1.02074E+00 0.00000E+00
 -1       492 3.70773E+00 1.16040E+00 0.00000E+00
 -1       493 3.64328E+00 1.31405E+00 0.00000E+00
 -1       494 3.57237E+00 1.48310E+00 0.00000E+00
 -1       495 3.49436E+00 1.66909E+00 0.00000E+00
 -1       496 3.40852E+00 1.87375E+00 0.00000E+00
 -1       497 3.31406E+00 2.09893E+00 0.00000E+00
 -1       498 3.21013E+00 2.34671E+00 0.00000E+00
 -1       499 3.09577E+00 2.61936E+00 0.00000E+00
 -1       500 2.96993E+00 2.91939E+00 0.00000E+00
 -1       501 2.83144E+00 3.24956E+00 0.00000E+00
 -1       502 2.67903E+00 3.61291E+00 0.00000E+00
 -1       503 2.51130E+00 4.01280E+00 0.00000E+00
 -1       504 2.32669E+00 4.45293E+00 0.00000E+00
 -1       505 2.12349E+00 4.93737E+00 0.00000E+00
 -1       506 1.89983E+00 5.47061E+00 0.00000E+00
 -1       507 1.65362E+00 6.05760E+00 0.00000E+00
 -1       508 1.38256E+00 6.70382E+00 0.00000E+00
 -1       509 1.08414E+00 7.41530E+00 0.00000E+00
 -1       510 7.55546E-01 8.19870E+00 0.00000E+00
 -1       511 3.93580E-01 9.06167E+00 0.00000E+00
 -1       512 4.28970E+00 1.10539E+00 0.00000E+00
 -1       513 4.22981E+00 1.22955E+00 0.00000E+00
 -1       514 4.16403E+00 1.36596E+00 0.00000E+00
 -1       515 4.09165E+00 1.51603E+00 0.00000E+00
 -1       516 4.01202E+00 1.68115E+00 0.00000E+00
 -1       517 3.92440E+00 1.86283E+00 0.00000E+00
 -1       518 3.82799E+00 2.06272E+00 0.00000E+00
 -1       519 3.72192E+00 2.28266E+00 0.00000E+00
 -1       520 3.60520E+00 2.52468E+00 0.00000E+00
 -1       521 3.47676E+00 2.79099E+00 0.00000E+00
 -1       522 3.33543E+00 3.08404E+00 0.00000E+00
 -1       523 3.17990E+00 3.40654E+00 0.00000E+00
 -1       524 3.00873E+00 3.76144E+00 0.00000E+00
 -1       525 2.82036E+00 4.15203E+00 0.00000E+00
 -1       526 2.61303E+00 4.58193E+00 0.00000E+00
 -1       527 2.38483E+00 5.05510E+00 0.00000E+00
 -1       528 2.13364E+00 5.57594E+00 0.00000E+00
 -1       529 1.85713E+00 6.14928E+00 0.00000E+00
 -1       530 1.55271E+00 6.78048E+00 0.00000E+00
 -1       531 1.21756E+00 7.47541E+00 0.00000E+00
 -1       532 8.48530E-01 8.24059E+00 0.00000E+00
 -1       533 4.42017E-01 9.08349E+00 0.00000E+00
 -1       534 4.79322E+00 1.36631E+00 0.00000E+00
 -1       535 4.72631E+00 1.48683E+00 0.00000E+00
 -1       536 4.65280E+00 1.61924E+00 0.00000E+00
 -1       537 4.57193E+00 1.76491E+00 0.00000E+00
 -1       538 4.48295E+00 1.92518E+00 0.00000E+00
 -1       539 4.38505E+00 2.10153E+00 0.00000E+00
 -1       540 4.27733E+00 2.29556E+00 0.00000E+00
 -1       541 4.15880E+00 2.50905E+00 0.00000E+00
 -1       542 4.02838E+00 2.74397E+00 0.00000E+00
 -1       543 3.88487E+00 3.00246E+00 0.00000E+00
 -1       544 3.72694E+00 3.28692E+00 0.00000E+00
 -1       545 3.55316E+00 3.59995E+00 0.00000E+00
 -1       546 3.36190E+00 3.94445E+00 0.00000E+00
 -1       547 3.15141E+00 4.32358E+00 0.00000E+00
 -1       548 2.91975E+00 4.74086E+00 0.00000E+00
 -1       549 2.66476E+00 5.20015E+00 0.00000E+00
 -1       550 2.38409E+00 5.70571E+00 0.00000E+00
 -1       551 2.07512E+00 6.26224E+00 0.00000E+00
 -1       552 1.73497E+00 6.87492E+00 0.00000E+00
 -1       553 1.36048E+00 7.54947E+00 0.00000E+00
 -1       554 9.48131E-01 8.29220E+00 0.00000E+00
 -1       555 4.93901E-01 9.11037E+00 0.00000E+00
 -1       556 5.32878E+00 1.68617E+00 0.00000E+00
 -1       557 5.25439E+00 1.80223E+00 0.00000E+00
 -1       558 5.17267E+00 1.92973E+00 0.00000E+00
 -1       559 5.08276E+00 2.07001E+00 0.00000E+00
 -1       560 4.98384E+00 2.22434E+00 0.00000E+00
 -1       561 4.87500E+00 2.39415E+00 0.00000E+00
 -1       562 4.75524E+00 2.58099E+00 0.00000E+00
 -1       563 4.62347E+00 2.78658E+00 0.00000E+00
 -1       564 4.47848E+00 3.01279E+00 0.00000E+00
 -1       565 4.31893E+00 3.26171E+00 0.00000E+00
 -1       566 4.14336E+00 3.53563E+00 0.00000E+00
 -1       567 3.95016E+00 3.83706E+00 0.00000E+00
 -1       568 3.73753E+00 4.16880E+00 0.00000E+00
 -1       569 3.50353E+00 4.53389E+00 0.00000E+00
 -1       570 3.24598E+00 4.93571E+00 0.00000E+00
 -1       571 2.96250E+00 5.37798E+00 0.00000E+00
 -1       572 2.65047E+00 5.86481E+00 0.00000E+00
 -1       573 2.30697E+00 6.40072E+00 0.00000E+00
 -1       574 1.92882E+00 6.99070E+00 0.00000E+00
 -1       575 1.51249E+00 7.64026E+00 0.00000E+00
 -1       576 1.05407E+00 8.35547E+00 0.00000E+00
 -1       577 5.49085E-01 9.14333E+00 0.00000E+00
 -1       578 5.89325E+00 2.07629E+00 0.00000E+00
 -1       579 5.81099E+00 2.18690E+00 0.00000E+00
 -1       580 5.72061E+00 2.30842E+00 0.00000E+00
 -1       581 5.62117E+00 2.44211E+00 0.00000E+00
 -1       582 5.51177E+00 2.58921E+00 0.00000E+00
 -1       583 5.39140E+00 2.75105E+00 0.00000E+00