
 displacements (vx,vy,vz) for set A and time  0.1000000E+01

         1  3.254795E-05 -5.919511E-24  1.671569E-05
