
 displacements (vx,vy,vz) for set VERTEX and time  0.1000000E+01

       180 -7.003125E-02  7.439035E+00  0.000000E+00
