
 displacements (vx,vy,vz) for set A and time  0.1000000E+01

         1  7.916175E-05  7.134332E-25  4.162829E-05
