    1C
    1UUSER                                                              
    1UDATE              26.march.2021                                   
    1UTIME              22:13:21                                        
    1UHOST                                                              
    1UPGM               CalculiX                                        
    1UVERSION           Version 2.17                             
    1UCOMPILETIME       Thu Jul 23 21:43:50 CEST 2020                    
    1UDIR                                                               
    1UDBN                                                               
    1UMAT    1MAT                                                       
    2C                           399                                     1
 -1       170 9.98080E+00-4.52017E-06-4.52017E-06
 -1       171 1.00008E+01 1.88340E-07 1.88340E-07
 -1       172 1.00208E+01 4.89685E-06 4.89685E-06
 -1       173 7.05749E+00-2.17936E-06 7.05749E+00
 -1       174 7.07163E+00 9.08069E-08 7.07163E+00
 -1       175 7.08578E+00 2.36098E-06 7.08578E+00
 -1       176 5.76242E+00 5.76242E+00 5.76242E+00
 -1       177 5.77396E+00 5.77396E+00 5.77396E+00
 -1       178 5.78551E+00 5.78551E+00 5.78551E+00
 -1       179 7.05749E+00 7.05749E+00-2.17936E-06
 -1       180 7.07163E+00 7.07163E+00 9.08069E-08
 -1       181 7.08578E+00 7.08578E+00 2.36098E-06
 -1       182-4.52017E-06-4.52017E-06 9.98080E+00
 -1       183 1.88340E-07 1.88340E-07 1.00008E+01
 -1       184 4.89685E-06 4.89685E-06 1.00208E+01
 -1       185-2.17936E-06 7.05749E+00 7.05749E+00
 -1       186 9.08069E-08 7.07163E+00 7.07163E+00
 -1       187 2.36098E-06 7.08578E+00 7.08578E+00
 -1       188-4.52017E-06 9.98080E+00-4.52017E-06
 -1       189 1.88340E-07 1.00008E+01 1.88340E-07
 -1       190 4.89685E-06 1.00208E+01 4.89685E-06
 -1       191 9.78902E+00-4.59584E-06 1.94716E+00
 -1       192 9.80864E+00 1.91493E-07 1.95106E+00
 -1       193 9.82825E+00 4.97882E-06 1.95496E+00
 -1       194 9.22106E+00-4.14339E-06 3.81949E+00
 -1       195 9.23953E+00 1.72641E-07 3.82714E+00
 -1       196 9.25801E+00 4.48868E-06 3.83479E+00
 -1       197 8.29873E+00-3.26393E-06 5.54504E+00
 -1       198 8.31536E+00 1.35997E-07 5.55615E+00
 -1       199 8.33199E+00 3.53593E-06 5.56726E+00
 -1       200 6.97411E+00 1.52969E+00 6.97411E+00
 -1       201 6.98808E+00 1.53276E+00 6.98808E+00
 -1       202 7.00206E+00 1.53582E+00 7.00206E+00
 -1       203 6.72593E+00 3.02324E+00 6.72593E+00
 -1       204 6.73941E+00 3.02930E+00 6.73941E+00
 -1       205 6.75289E+00 3.03535E+00 6.75289E+00
 -1       206 6.31883E+00 4.44535E+00 6.31883E+00
 -1       207 6.33149E+00 4.45426E+00 6.33149E+00
 -1       208 6.34415E+00 4.46316E+00 6.34415E+00
 -1       209 6.31883E+00 6.31883E+00 4.44535E+00
 -1       210 6.33149E+00 6.33149E+00 4.45426E+00
 -1       211 6.34415E+00 6.34415E+00 4.46316E+00
 -1       212 6.72593E+00 6.72593E+00 3.02324E+00
 -1       213 6.73941E+00 6.73941E+00 3.02930E+00
 -1       214 6.75289E+00 6.75289E+00 3.03535E+00
 -1       215 6.97411E+00 6.97411E+00 1.52969E+00
 -1       216 6.98808E+00 6.98808E+00 1.53276E+00
 -1       217 7.00206E+00 7.00206E+00 1.53582E+00
 -1       218 9.78902E+00 1.94716E+00-4.32643E-06
 -1       219 9.80864E+00 1.95106E+00 1.80268E-07
 -1       220 9.82825E+00 1.95496E+00 4.68697E-06
 -1       221 9.22106E+00 3.81949E+00-3.78653E-06
 -1       222 9.23953E+00 3.82714E+00 1.57772E-07
 -1       223 9.25801E+00 3.83479E+00 4.10208E-06
 -1       224 8.29873E+00 5.54504E+00-3.01682E-06
 -1       225 8.31536E+00 5.55615E+00 1.25701E-07
 -1       226 8.33199E+00 5.56726E+00 3.26822E-06
 -1       227 5.54504E+00-3.00880E-06 8.29873E+00
 -1       228 5.55615E+00 1.25367E-07 8.31536E+00
 -1       229 5.56726E+00 3.25953E-06 8.33199E+00
 -1       230 3.81949E+00-3.75757E-06 9.22106E+00
 -1       231 3.82714E+00 1.56565E-07 9.23953E+00
 -1       232 3.83479E+00 4.07070E-06 9.25801E+00
 -1       233 1.94716E+00-4.29269E-06 9.78902E+00
 -1       234 1.95106E+00 1.78862E-07 9.80864E+00
 -1       235 1.95496E+00 4.65041E-06 9.82825E+00
 -1       236-3.00880E-06 5.54504E+00 8.29873E+00
 -1       237 1.25367E-07 5.55615E+00 8.31536E+00
 -1       238 3.25953E-06 5.56726E+00 8.33199E+00
 -1       239-3.75757E-06 3.81949E+00 9.22106E+00
 -1       240 1.56565E-07 3.82714E+00 9.23953E+00
 -1       241 4.07070E-06 3.83479E+00 9.25801E+00
 -1       242-4.29269E-06 1.94716E+00 9.78902E+00
 -1       243 1.78862E-07 1.95106E+00 9.80864E+00
 -1       244 4.65041E-06 1.95496E+00 9.82825E+00
 -1       245 1.52969E+00 6.97411E+00 6.97411E+00
 -1       246 1.53276E+00 6.98808E+00 6.98808E+00
 -1       247 1.53582E+00 7.00206E+00 7.00206E+00
 -1       248 3.02324E+00 6.72593E+00 6.72593E+00
 -1       249 3.02930E+00 6.73941E+00 6.73941E+00
 -1       250 3.03535E+00 6.75289E+00 6.75289E+00
 -1       251 4.44535E+00 6.31883E+00 6.31883E+00
 -1       252 4.45426E+00 6.33149E+00 6.33149E+00
 -1       253 4.46316E+00 6.34415E+00 6.34415E+00
 -1       254-4.59584E-06 9.78902E+00 1.94716E+00
 -1       255 1.91493E-07 9.80864E+00 1.95106E+00
 -1       256 4.97882E-06 9.82825E+00 1.95496E+00
 -1       257-4.14339E-06 9.22106E+00 3.81949E+00
 -1       258 1.72641E-07 9.23953E+00 3.82714E+00
 -1       259 4.48868E-06 9.25801E+00 3.83479E+00
 -1       260-3.26393E-06 8.29873E+00 5.54504E+00
 -1       261 1.35997E-07 8.31536E+00 5.55615E+00
 -1       262 3.53593E-06 8.33199E+00 5.56726E+00
 -1       263 5.54504E+00 8.29873E+00-3.01682E-06
 -1       264 5.55615E+00 8.31536E+00 1.25701E-07
 -1       265 5.56726E+00 8.33199E+00 3.26822E-06
 -1       266 3.81949E+00 9.22106E+00-3.78653E-06
 -1       267 3.82714E+00 9.23953E+00 1.57772E-07
 -1       268 3.83479E+00 9.25801E+00 4.10208E-06
 -1       269 1.94716E+00 9.78902E+00-4.32643E-06
 -1       270 1.95106E+00 9.80864E+00 1.80268E-07
 -1       271 1.95496E+00 9.82825E+00 4.68697E-06
 -1       272 8.16208E+00 1.74845E+00 5.47171E+00
 -1       273 8.17844E+00 1.75196E+00 5.48268E+00
 -1       274 8.19480E+00 1.75546E+00 5.49364E+00
 -1       275 7.76461E+00 3.42097E+00 5.25587E+00
 -1       276 7.78017E+00 3.42783E+00 5.26640E+00
 -1       277 7.79573E+00 3.43468E+00 5.27693E+00
 -1       278 7.13757E+00 4.95751E+00 4.90861E+00
 -1       279 7.15188E+00 4.96745E+00 4.91845E+00
 -1       280 7.16618E+00 4.97738E+00 4.92829E+00
 -1       281 9.04764E+00 1.89190E+00 3.76527E+00
 -1       282 9.06577E+00 1.89570E+00 3.77281E+00
 -1       283 9.08390E+00 1.89949E+00 3.78036E+00
 -1       284 8.54406E+00 3.68880E+00 3.60669E+00
 -1       285 8.56118E+00 3.69619E+00 3.61392E+00
 -1       286 8.57830E+00 3.70358E+00 3.62114E+00
 -1       287 7.75265E+00 5.31598E+00 3.35457E+00
 -1       288 7.76819E+00 5.32663E+00 3.36129E+00
 -1       289 7.78372E+00 5.33728E+00 3.36801E+00
 -1       290 9.59703E+00 1.95783E+00 1.91840E+00
 -1       291 9.61626E+00 1.96175E+00 1.92225E+00
 -1       292 9.63549E+00 1.96567E+00 1.92609E+00
 -1       293 9.03579E+00 3.82167E+00 1.83460E+00
 -1       294 9.05389E+00 3.82933E+00 1.83828E+00
 -1       295 9.07200E+00 3.83699E+00 1.84196E+00
 -1       296 8.14418E+00 5.51282E+00 1.70222E+00
 -1       297 8.16050E+00 5.52386E+00 1.70563E+00
 -1       298 8.17682E+00 5.53491E+00 1.70904E+00
 -1       299 1.91424E+00 1.91424E+00 9.60665E+00
 -1       300 1.91808E+00 1.91808E+00 9.62590E+00
 -1       301 1.92191E+00 1.92191E+00 9.64515E+00
 -1       302 1.83177E+00 3.77016E+00 9.05797E+00
 -1       303 1.83544E+00 3.77772E+00 9.07612E+00
 -1       304 1.83911E+00 3.78527E+00 9.09427E+00
 -1       305 1.70191E+00 5.48161E+00 8.16529E+00
 -1       306 1.70532E+00 5.49259E+00 8.18165E+00
 -1       307 1.70873E+00 5.50357E+00 8.19801E+00
 -1       308 3.77016E+00 1.83177E+00 9.05797E+00
 -1       309 3.77772E+00 1.83544E+00 9.07612E+00
 -1       310 3.78527E+00 1.83911E+00 9.09427E+00
 -1       311 3.61659E+00 3.61659E+00 8.57070E+00
 -1       312 3.62384E+00 3.62384E+00 8.58787E+00
 -1       313 3.63109E+00 3.63109E+00 8.60505E+00
 -1       314 3.36365E+00 5.27139E+00 7.77912E+00
 -1       315 3.37039E+00 5.28196E+00 7.79470E+00
 -1       316 3.37713E+00 5.29252E+00 7.81029E+00
 -1       317 5.48161E+00 1.70191E+00 8.16529E+00
 -1       318 5.49259E+00 1.70532E+00 8.18165E+00
 -1       319 5.50357E+00 1.70873E+00 8.19801E+00
 -1       320 5.27139E+00 3.36365E+00 7.77912E+00
 -1       321 5.28196E+00 3.37039E+00 7.79470E+00
 -1       322 5.29252E+00 3.37713E+00 7.81029E+00
 -1       323 4.92109E+00 4.92109E+00 7.15417E+00
 -1       324 4.93095E+00 4.93095E+00 7.16851E+00
 -1       325 4.94081E+00 4.94081E+00 7.18285E+00
 -1       326 4.95751E+00 7.13757E+00 4.90861E+00
 -1       327 4.96745E+00 7.15188E+00 4.91845E+00
 -1       328 4.97738E+00 7.16618E+00 4.92829E+00
 -1       329 3.42097E+00 7.76461E+00 5.25587E+00
 -1       330 3.42783E+00 7.78017E+00 5.26640E+00
 -1       331 3.43468E+00 7.79573E+00 5.27693E+00
 -1       332 1.74845E+00 8.16208E+00 5.47171E+00
 -1       333 1.75196E+00 8.17844E+00 5.48268E+00
 -1       334 1.75546E+00 8.19480E+00 5.49364E+00
 -1       335 5.31598E+00 7.75265E+00 3.35457E+00
 -1       336 5.32663E+00 7.76819E+00 3.36129E+00
 -1       337 5.33728E+00 7.78372E+00 3.36801E+00
 -1       338 3.68880E+00 8.54406E+00 3.60669E+00
 -1       339 3.69619E+00 8.56118E+00 3.61392E+00
 -1       340 3.70358E+00 8.57830E+00 3.62114E+00
 -1       341 1.89190E+00 9.04764E+00 3.76527E+00
 -1       342 1.89570E+00 9.06577E+00 3.77281E+00
 -1       343 1.89949E+00 9.08390E+00 3.78036E+00
 -1       344 5.51282E+00 8.14418E+00 1.70222E+00
 -1       345 5.52386E+00 8.16050E+00 1.70563E+00
 -1       346 5.53491E+00 8.17682E+00 1.70904E+00
 -1       347 3.82167E+00 9.03579E+00 1.83460E+00
 -1       348 3.82933E+00 9.05389E+00 1.83828E+00
 -1       349 3.83699E+00 9.07200E+00 1.84196E+00
 -1       350 1.95783E+00 9.59703E+00 1.91840E+00
 -1       351 1.96175E+00 9.61626E+00 1.92225E+00
 -1       352 1.96567E+00 9.63549E+00 1.92609E+00
 -1       353 7.71526E+00-1.78855E-05 6.33175E+00
 -1       355 7.74618E+00 1.93759E-05 6.35713E+00
 -1       356 8.26241E+00 8.77626E-01 5.52980E+00
 -1       358 8.29553E+00 8.81143E-01 5.55195E+00
 -1       359 7.60364E+00 1.64677E+00 6.25214E+00
 -1       361 7.63411E+00 1.65337E+00 6.27719E+00
 -1       362 7.03662E+00 7.67115E-01 7.03661E+00
 -1       364 7.06482E+00 7.70190E-01 7.06482E+00
 -1       365 7.99351E+00 2.59450E+00 5.38411E+00
 -1       367 8.02555E+00 2.60490E+00 5.40568E+00
 -1       368 7.27637E+00 3.23593E+00 6.01661E+00
 -1       370 7.30553E+00 3.24890E+00 6.04072E+00
 -1       371 6.87035E+00 2.28322E+00 6.87034E+00
 -1       373 6.89788E+00 2.29237E+00 6.89788E+00
 -1       374 7.47812E+00 4.20444E+00 5.10067E+00
 -1       376 7.50809E+00 4.22129E+00 5.12111E+00
 -1       377 6.75300E+00 4.71876E+00 5.63441E+00
 -1       379 6.78007E+00 4.73767E+00 5.65700E+00
 -1       380 6.54173E+00 3.74537E+00 6.54173E+00
 -1       382 6.56795E+00 3.76038E+00 6.56795E+00
 -1       383 6.75144E+00 5.65764E+00 4.69314E+00
 -1       385 6.77850E+00 5.68032E+00 4.71194E+00
 -1       386 6.05855E+00 6.05855E+00 5.11903E+00
 -1       388 6.08283E+00 6.08283E+00 5.13954E+00
 -1       389 6.05855E+00 5.11903E+00 6.05855E+00
 -1       391 6.08283E+00 5.13954E+00 6.08283E+00
 -1       392 8.80228E+00-2.58228E-05 4.70492E+00
 -1       394 8.83756E+00 2.79747E-05 4.72377E+00
 -1       395 9.17604E+00 9.50269E-01 3.80969E+00
 -1       397 9.21281E+00 9.54078E-01 3.82495E+00
 -1       398 8.64528E+00 1.82873E+00 4.64018E+00
 -1       400 8.67993E+00 1.83605E+00 4.65878E+00
 -1       401 8.83482E+00 2.80271E+00 3.70231E+00
 -1       403 8.87023E+00 2.81395E+00 3.71714E+00
 -1       404 8.18934E+00 3.57015E+00 4.45030E+00
 -1       406 8.22216E+00 3.58445E+00 4.46813E+00
 -1       407 8.18270E+00 4.52136E+00 3.49530E+00
 -1       409 8.21549E+00 4.53948E+00 3.50930E+00
 -1       410 7.47256E+00 5.15569E+00 4.14682E+00
 -1       412 7.50251E+00 5.17634E+00 4.16344E+00
 -1       413 7.26810E+00 6.04491E+00 3.20159E+00
 -1       415 7.29723E+00 6.06914E+00 3.21442E+00
 -1       416 6.54173E+00 6.54173E+00 3.74537E+00
 -1       418 6.56795E+00 6.56795E+00 3.76038E+00
 -1       419 9.55103E+00-3.01936E-05 2.89727E+00
 -1       421 9.58931E+00 3.27097E-05 2.90888E+00
 -1       422 9.74045E+00 9.83703E-01 1.94224E+00
 -1       424 9.77949E+00 9.87646E-01 1.95002E+00
 -1       425 9.36613E+00 1.93391E+00 2.85518E+00
 -1       427 9.40366E+00 1.94166E+00 2.86663E+00
 -1       428 9.36110E+00 2.90361E+00 1.88551E+00
 -1       430 9.39862E+00 2.91525E+00 1.89306E+00
 -1       431 8.82766E+00 3.77136E+00 2.73233E+00
 -1       433 8.86304E+00 3.78647E+00 2.74328E+00
 -1       434 8.62984E+00 4.68890E+00 1.77662E+00
 -1       436 8.66443E+00 4.70769E+00 1.78374E+00
 -1       437 7.97772E+00 5.43436E+00 2.53772E+00
 -1       439 8.00970E+00 5.45614E+00 2.54789E+00
 -1       440 7.59289E+00 6.27134E+00 1.62317E+00
 -1       442 7.62332E+00 6.29647E+00 1.62967E+00
 -1       443 6.87035E+00 6.87035E+00 2.28322E+00
 -1       445 6.89788E+00 6.89788E+00 2.29237E+00
 -1       446 9.93274E+00-3.13122E-05 9.78289E-01
 -1       448 9.97255E+00 3.39216E-05 9.82210E-01
 -1       449 9.93274E+00 9.78289E-01-3.14474E-05
 -1       451 9.97255E+00 9.82210E-01 3.40680E-05
 -1       452 9.73856E+00 1.96167E+00 9.63708E-01
 -1       454 9.77759E+00 1.96952E+00 9.67570E-01
 -1       455 9.55103E+00 2.89727E+00-2.92432E-05
 -1       457 9.58931E+00 2.90888E+00 3.16801E-05
 -1       458 9.16762E+00 3.83699E+00 9.21241E-01
 -1       460 9.20436E+00 3.85236E+00 9.24933E-01
 -1       461 8.80228E+00 4.70492E+00-2.49273E-05
 -1       463 8.83756E+00 4.72377E+00 2.70046E-05
 -1       464 8.25177E+00 5.54932E+00 8.54249E-01
 -1       466 8.28484E+00 5.57155E+00 8.57673E-01
 -1       467 7.71526E+00 6.33175E+00-1.87338E-05
 -1       469 7.74618E+00 6.35713E+00 2.02950E-05
 -1       470 7.03661E+00 7.03661E+00 7.67115E-01
 -1       472 7.06482E+00 7.06482E+00 7.70190E-01
 -1       473 9.78289E-01-3.06283E-05 9.93274E+00
 -1       475 9.82210E-01 3.31807E-05 9.97255E+00
 -1       476 1.93972E+00 9.61594E-01 9.74316E+00
 -1       478 1.94750E+00 9.65447E-01 9.78221E+00
 -1       479 9.61594E-01 1.93972E+00 9.74316E+00
 -1       481 9.65447E-01 1.94750E+00 9.78221E+00
 -1       482-3.06283E-05 9.78289E-01 9.93274E+00
 -1       484 3.31807E-05 9.82210E-01 9.97255E+00
 -1       485 1.88189E+00 2.85568E+00 9.37656E+00
 -1       487 1.88943E+00 2.86712E+00 9.41414E+00
 -1       488 9.19801E-01 3.81105E+00 9.17858E+00
 -1       490 9.23488E-01 3.82631E+00 9.21536E+00
 -1       491-2.89658E-05 2.89727E+00 9.55103E+00
 -1       493 3.13796E-05 2.90888E+00 9.58931E+00
 -1       494 1.77520E+00 4.64776E+00 8.65236E+00
 -1       496 1.78231E+00 4.66639E+00 8.68704E+00
 -1       497 8.54087E-01 5.53362E+00 8.26232E+00
 -1       499 8.57510E-01 5.55580E+00 8.29543E+00
 -1       500-2.53425E-05 4.70492E+00 8.80228E+00
 -1       502 2.74543E-05 4.72377E+00 8.83756E+00
 -1       503 1.62331E+00 6.25679E+00 7.60486E+00
 -1       505 1.62981E+00 6.28186E+00 7.63534E+00
 -1       506 7.67115E-01 7.03662E+00 7.03661E+00
 -1       508 7.70190E-01 7.06482E+00 7.06482E+00
 -1       509-1.98831E-05 6.33175E+00 7.71526E+00
 -1       511 2.15400E-05 6.35713E+00 7.74618E+00
 -1       512 2.89727E+00-2.89658E-05 9.55103E+00
 -1       514 2.90888E+00 3.13796E-05 9.58931E+00
 -1       515 3.81105E+00 9.19801E-01 9.17858E+00
 -1       517 3.82631E+00 9.23488E-01 9.21536E+00
 -1       518 2.85568E+00 1.88189E+00 9.37656E+00
 -1       520 2.86712E+00 1.88943E+00 9.41414E+00
 -1       521 3.70946E+00 2.73604E+00 8.85270E+00
 -1       523 3.72432E+00 2.74701E+00 8.88818E+00
 -1       524 2.73604E+00 3.70946E+00 8.85270E+00
 -1       526 2.74701E+00 3.72432E+00 8.88818E+00
 -1       527 3.50524E+00 4.46324E+00 8.21031E+00
 -1       529 3.51928E+00 4.48113E+00 8.24322E+00
 -1       530 2.54222E+00 5.39655E+00 8.00192E+00
 -1       532 2.55241E+00 5.41817E+00 8.03400E+00
 -1       533 3.20692E+00 6.02397E+00 7.28312E+00
 -1       535 3.21976E+00 6.04811E+00 7.31231E+00
 -1       536 2.28322E+00 6.87035E+00 6.87034E+00
 -1       538 2.29237E+00 6.89788E+00 6.89788E+00
 -1       539 4.70492E+00-2.53425E-05 8.80228E+00
 -1       541 4.72377E+00 2.74543E-05 8.83756E+00
 -1       542 5.53362E+00 8.54087E-01 8.26232E+00
 -1       544 5.55580E+00 8.57510E-01 8.29543E+00
 -1       545 4.64776E+00 1.77520E+00 8.65236E+00
 -1       547 4.66639E+00 1.78231E+00 8.68704E+00
 -1       548 5.39655E+00 2.54222E+00 8.00192E+00
 -1       550 5.41817E+00 2.55241E+00 8.03400E+00
 -1       551 4.46324E+00 3.50524E+00 8.21031E+00
 -1       553 4.48113E+00 3.51928E+00 8.24322E+00
 -1       554 5.11514E+00 4.15773E+00 7.49433E+00
 -1       556 5.13563E+00 4.17439E+00 7.52437E+00
 -1       557 4.15773E+00 5.11514E+00 7.49433E+00
 -1       559 4.17439E+00 5.13563E+00 7.52437E+00
 -1       560 4.70022E+00 5.64036E+00 6.76096E+00
 -1       562 4.71906E+00 5.66297E+00 6.78806E+00
 -1       563 3.74537E+00 6.54173E+00 6.54173E+00
 -1       565 3.76038E+00 6.56795E+00 6.56795E+00
 -1       566 6.33175E+00-1.98831E-05 7.71526E+00
 -1       568 6.35713E+00 2.15400E-05 7.74618E+00
 -1       569 6.25679E+00 1.62331E+00 7.60486E+00
 -1       571 6.28186E+00 1.62981E+00 7.63534E+00
 -1       572 6.02397E+00 3.20692E+00 7.28312E+00
 -1       574 6.04811E+00 3.21976E+00 7.31231E+00
 -1       575 5.64036E+00 4.70022E+00 6.76096E+00
 -1       577 5.66297E+00 4.71906E+00 6.78806E+00
 -1       578 5.11903E+00 6.05855E+00 6.05855E+00
 -1       580 5.13954E+00 6.08283E+00 6.08283E+00
 -1       581 5.65764E+00 6.75144E+00 4.69314E+00
 -1       583 5.68032E+00 6.77850E+00 4.71194E+00
 -1       584 4.71876E+00 6.75300E+00 5.63441E+00
 -1       586 4.73767E+00 6.78007E+00 5.65700E+00
 -1       587 4.20444E+00 7.47812E+00 5.10067E+00
 -1       589 4.22129E+00 7.50809E+00 5.12111E+00
 -1       590 3.23593E+00 7.27637E+00 6.01661E+00
 -1       592 3.24890E+00 7.30553E+00 6.04072E+00
 -1       593 2.59450E+00 7.99351E+00 5.38411E+00
 -1       595 2.60490E+00 8.02555E+00 5.40568E+00
 -1       596 1.64677E+00 7.60364E+00 6.25214E+00
 -1       598 1.65337E+00 7.63411E+00 6.27719E+00
 -1       599 8.77626E-01 8.26241E+00 5.52980E+00
 -1       601 8.81143E-01 8.29553E+00 5.55195E+00
 -1       602-1.78855E-05 7.71526E+00 6.33175E+00
 -1       604 1.93759E-05 7.74618E+00 6.35713E+00
 -1       605 6.04491E+00 7.26810E+00 3.20159E+00
 -1       607 6.06914E+00 7.29723E+00 3.21442E+00
 -1       608 5.15569E+00 7.47256E+00 4.14682E+00
 -1       610 5.17634E+00 7.50251E+00 4.16344E+00
 -1       611 4.52136E+00 8.18270E+00 3.49530E+00
 -1       613 4.53948E+00 8.21549E+00 3.50930E+00
 -1       614 3.57015E+00 8.18934E+00 4.45030E+00
 -1       616 3.58445E+00 8.22216E+00 4.46813E+00
 -1       617 2.80271E+00 8.83482E+00 3.70231E+00
 -1       619 2.81395E+00 8.87023E+00 3.71714E+00
 -1       620 1.82873E+00 8.64528E+00 4.64018E+00
 -1       622 1.83605E+00 8.67993E+00 4.65878E+00
 -1       623 9.50269E-01 9.17604E+00 3.80969E+00
 -1       625 9.54078E-01 9.21281E+00 3.82495E+00
 -1       626-2.58228E-05 8.80228E+00 4.70492E+00
 -1       628 2.79747E-05 8.83756E+00 4.72377E+00
 -1       629 6.27134E+00 7.59289E+00 1.62317E+00
 -1       631 6.29647E+00 7.62332E+00 1.62967E+00
 -1       632 5.43436E+00 7.97772E+00 2.53772E+00
 -1       634 5.45614E+00 8.00970E+00 2.54789E+00
 -1       635 4.68890E+00 8.62984E+00 1.77662E+00
 -1       637 4.70769E+00 8.66443E+00 1.78374E+00
 -1       638 3.77136E+00 8.82766E+00 2.73233E+00
 -1       640 3.78647E+00 8.86304E+00 2.74328E+00
 -1       641 2.90361E+00 9.36110E+00 1.88551E+00
 -1       643 2.91525E+00 9.39862E+00 1.89306E+00
 -1       644 1.93391E+00 9.36613E+00 2.85518E+00
 -1       646 1.94166E+00 9.40366E+00 2.86663E+00
 -1       647 9.83703E-01 9.74045E+00 1.94224E+00
 -1       649 9.87646E-01 9.77949E+00 1.95002E+00
 -1       650-3.01936E-05 9.55103E+00 2.89727E+00
 -1       652 3.27097E-05 9.58931E+00 2.90888E+00
 -1       653 6.33175E+00 7.71526E+00-1.87338E-05
 -1       655 6.35713E+00 7.74618E+00 2.02950E-05
 -1       656 5.54932E+00 8.25177E+00 8.54249E-01
 -1       658 5.57155E+00 8.28484E+00 8.57673E-01
 -1       659 4.70492E+00 8.80228E+00-2.49273E-05
 -1       661 4.72377E+00 8.83756E+00 2.70046E-05
 -1       662 3.83699E+00 9.16762E+00 9.21241E-01
 -1       664 3.85236E+00 9.20436E+00 9.24933E-01
 -1       665 2.89727E+00 9.55103E+00-2.92432E-05
 -1       667 2.90888E+00 9.58931E+00 3.16801E-05
 -1       668 1.96167E+00 9.73856E+00 9.63708E-01
 -1       670 1.96952E+00 9.77759E+00 9.67570E-01
 -1       671 9.78289E-01 9.93274E+00-3.14474E-05
 -1       673 9.82210E-01 9.97255E+00 3.40680E-05
 -1       674-3.13122E-05 9.93274E+00 9.78289E-01
 -1       676 3.39216E-05 9.97255E+00 9.82210E-01
 -3
    3C                            48                                     1
 -1         1    4    0    1
 -2       173       197       272       200       175       199       274       202       353       356
 -2       359       362       174       198       273       201       355       358       361       364
 -1         2    4    0    1
 -2       200       272       275       203       202       274       277       205       359       365
 -2       368       371       201       273       276       204       361       367       370       373
 -1         3    4    0    1
 -2       203       275       278       206       205       277       280       208       368       374
 -2       377       380       204       276       279       207       370       376       379       382
 -1         4    4    0    1
 -2       206       278       209       176       208       280       211       178       377       383
 -2       386       389       207       279       210       177       379       385       388       391
 -1         5    4    0    1
 -2       197       194       281       272       199       196       283       274       392       395
 -2       398       356       198       195       282       273       394       397       400       358
 -1         6    4    0    1
 -2       272       281       284       275       274       283       286       277       398       401
 -2       404       365       273       282       285       276       400       403       406       367
 -1         7    4    0    1
 -2       275       284       287       278       277       286       289       280       404       407
 -2       410       374       276       285       288       279       406       409       412       376
 -1         8    4    0    1
 -2       278       287       212       209       280       289       214       211       410       413
 -2       416       383       279       288       213       210       412       415       418       385
 -1         9    4    0    1
 -2       194       191       290       281       196       193       292       283       419       422
 -2       425       395       195       192       291       282       421       424       427       397
 -1        10    4    0    1
 -2       281       290       293       284       283       292       295       286       425       428
 -2       431       401       282       291       294       285       427       430       433       403
 -1        11    4    0    1
 -2       284       293       296       287       286       295       298       289       431       434
 -2       437       407       285       294       297       288       433       436       439       409
 -1        12    4    0    1
 -2       287       296       215       212       289       298       217       214       437       440
 -2       443       413       288       297       216       213       439       442       445       415
 -1        13    4    0    1
 -2       191       170       218       290       193       172       220       292       446       449
 -2       452       422       192       171       219       291       448       451       454       424
 -1        14    4    0    1
 -2       290       218       221       293       292       220       223       295       452       455
 -2       458       428       291       219       222       294       454       457       460       430
 -1        15    4    0    1
 -2       293       221       224       296       295       223       226       298       458       461
 -2       464       434       294       222       225       297       460       463       466       436
 -1        16    4    0    1
 -2       296       224       179       215       298       226       181       217       464       467
 -2       470       440       297       225       180       216       466       469       472       442
 -1        17    4    0    1
 -2       182       233       299       242       184       235       301       244       473       476
 -2       479       482       183       234       300       243       475       478       481       484
 -1        18    4    0    1
 -2       242       299       302       239       244       301       304       241       479       485
 -2       488       491       243       300       303       240       481       487       490       493
 -1        19    4    0    1
 -2       239       302       305       236       241       304       307       238       488       494
 -2       497       500       240       303       306       237       490       496       499       502
 -1        20    4    0    1
 -2       236       305       245       185       238       307       247       187       497       503
 -2       506       509       237       306       246       186       499       505       508       511
 -1        21    4    0    1
 -2       233       230       308       299       235       232       310       301       512       515
 -2       518       476       234       231       309       300       514       517       520       478
 -1        22    4    0    1
 -2       299       308       311       302       301       310       313       304       518       521
 -2       524       485       300       309       312       303       520       523       526       487
 -1        23    4    0    1
 -2       302       311       314       305       304       313       316       307       524       527
 -2       530       494       303       312       315       306       526       529       532       496
 -1        24    4    0    1
 -2       305       314       248       245       307       316       250       247       530       533
 -2       536       503       306       315       249       246       532       535       538       505
 -1        25    4    0    1
 -2       230       227       317       308       232       229       319       310       539       542
 -2       545       515       231       228       318       309       541       544       547       517
 -1        26    4    0    1
 -2       308       317       320       311       310       319       322       313       545       548
 -2       551       521       309       318       321       312       547       550       553       523
 -1        27    4    0    1
 -2       311       320       323       314       313       322       325       316       551       554
 -2       557       527       312       321       324       315       553       556       559       529
 -1        28    4    0    1
 -2       314       323       251       248       316       325       253       250       557       560
 -2       563       533       315       324       252       249       559       562       565       535
 -1        29    4    0    1
 -2       227       173       200       317       229       175       202       319       566       362
 -2       569       542       228       174       201       318       568       364       571       544
 -1        30    4    0    1
 -2       317       200       203       320       319       202       205       322       569       371
 -2       572       548       318       201       204       321       571       373       574       550
 -1        31    4    0    1
 -2       320       203       206       323       322       205       208       325       572       380
 -2       575       554       321       204       207       324       574       382       577       556
 -1        32    4    0    1
 -2       323       206       176       251       325       208       178       253       575       389
 -2       578       560       324       207       177       252       577       391       580       562
 -1        33    4    0    1
 -2       176       209       326       251       178       211       328       253       386       581
 -2       584       578       177       210       327       252       388       583       586       580
 -1        34    4    0    1
 -2       251       326       329       248       253       328       331       250       584       587
 -2       590       563       252       327       330       249       586       589       592       565
 -1        35    4    0    1
 -2       248       329       332       245       250       331       334       247       590       593
 -2       596       536       249       330       333       246       592       595       598       538
 -1        36    4    0    1
 -2       245       332       260       185       247       334       262       187       596       599
 -2       602       506       246       333       261       186       598       601       604       508
 -1        37    4    0    1
 -2       209       212       335       326       211       214       337       328       416       605
 -2       608       581       210       213       336       327       418       607       610       583
 -1        38    4    0    1
 -2       326       335       338       329       328       337       340       331       608       611
 -2       614       587       327       336       339       330       610       613       616       589
 -1        39    4    0    1
 -2       329       338       341       332       331       340       343       334       614       617