
 displacements (vx,vy,vz) for set VERTEX and time  0.1000000E+01

      2463 -1.966580E+01  2.734895E+01  0.000000E+00
