    1C
    1UHash: PXJD0WWr, Date: 03/11/2021, Unit system: MM_TON_S_C         
    1UUSER                                                              
    1UDATE              13.march.2021                                   
    1UTIME              18:35:48                                        
    1UHOST                                                              
    1UPGM               CalculiX                                        
    1UVERSION           Version 2.17                             
    1UCOMPILETIME       Thu Jul 23 21:43:50 CEST 2020                    
    1UDIR                                                               
    1UDBN                                                               
    1UMAT    1RUBBER                                                    
    2C                           339                                     1
 -1       380 4.80000E+01 4.40000E+01 0.00000E+00
 -1       381 4.80000E+01 4.40000E+01 5.00000E+00
 -1       382 0.00000E+00 0.00000E+00 0.00000E+00
 -1       383 0.00000E+00 0.00000E+00 5.00000E+00
 -1       384 4.80000E+01 6.00000E+01 0.00000E+00
 -1       385 4.80000E+01 6.00000E+01 5.00000E+00
 -1       386 0.00000E+00 4.40000E+01 0.00000E+00
 -1       387 0.00000E+00 4.40000E+01 5.00000E+00
 -1       388 4.00000E+01 3.66667E+01 0.00000E+00
 -1       389 3.20000E+01 2.93333E+01 0.00000E+00
 -1       390 2.40000E+01 2.20000E+01 0.00000E+00
 -1       391 1.60000E+01 1.46667E+01 0.00000E+00
 -1       392 8.00000E+00 7.33333E+00 0.00000E+00
 -1       393 4.00000E+01 3.66667E+01 5.00000E+00
 -1       394 3.20000E+01 2.93333E+01 5.00000E+00
 -1       395 2.40000E+01 2.20000E+01 5.00000E+00
 -1       396 1.60000E+01 1.46667E+01 5.00000E+00
 -1       397 8.00000E+00 7.33333E+00 5.00000E+00
 -1       398 4.80000E+01 5.20000E+01 0.00000E+00
 -1       399 4.80000E+01 5.20000E+01 5.00000E+00
 -1       400 1.20000E+01 4.80000E+01 0.00000E+00
 -1       401 2.40000E+01 5.20000E+01 0.00000E+00
 -1       402 3.60000E+01 5.60000E+01 0.00000E+00
 -1       403 1.20000E+01 4.80000E+01 5.00000E+00
 -1       404 2.40000E+01 5.20000E+01 5.00000E+00
 -1       405 3.60000E+01 5.60000E+01 5.00000E+00
 -1       406 0.00000E+00 1.10000E+01 0.00000E+00
 -1       407 0.00000E+00 2.20000E+01 0.00000E+00
 -1       408 0.00000E+00 3.30000E+01 0.00000E+00
 -1       409 0.00000E+00 1.10000E+01 5.00000E+00
 -1       410 0.00000E+00 2.20000E+01 5.00000E+00
 -1       411 0.00000E+00 3.30000E+01 5.00000E+00
 -1       412 3.80065E+01 4.67331E+01 0.00000E+00
 -1       413 2.09537E+01 3.61194E+01 0.00000E+00
 -1       414 6.62674E+00 2.71099E+01 0.00000E+00
 -1       415 9.61877E+00 3.62657E+01 0.00000E+00
 -1       416 7.75803E+00 1.77959E+01 0.00000E+00
 -1       417 3.05955E+01 4.02121E+01 0.00000E+00
 -1       418 1.49260E+01 2.57683E+01 0.00000E+00
 -1       419 1.14120E+01 2.54818E+01 5.00000E+00
 -1       420 2.54557E+01 4.04878E+01 5.00000E+00
 -1       421 3.70129E+01 4.65978E+01 5.00000E+00
 -1       422 1.14283E+01 3.72313E+01 5.00000E+00
 -1       423 7.18583E+00 1.63756E+01 5.00000E+00
 -1       424 2.08432E+01 3.11517E+01 5.00000E+00
 -1       425 4.76644E+00 2.94410E+01 2.49260E+00
 -1       426 1.90846E+01 4.34778E+01 2.67109E+00
 -1       427 4.07939E+01 4.27991E+01 2.51110E+00
 -1       428 4.39936E+00 1.43227E+01 2.48868E+00
 -1       429 4.16500E+01 5.27551E+01 2.48414E+00
 -1       430 2.72183E+01 3.45384E+01 2.49888E+00
 -1       431 1.80600E+01 2.26208E+01 2.46317E+00
 -1       432 3.44644E+01 3.83298E+01 2.39541E+00
 -1       433 5.28484E+00 2.17785E+01 2.44780E+00
 -1       434 3.47176E+00 7.98777E+00 2.50831E+00
 -1       435 8.74601E+00 4.20323E+01 2.48626E+00
 -1       436 3.13696E+01 4.86081E+01 2.53841E+00
 -1       437 4.45190E+00 3.72323E+01 2.46029E+00
 -1       438 2.37781E+01 2.81748E+01 2.59705E+00
 -1       439 1.24811E+01 1.89365E+01 2.48864E+00
 -1       440 4.38562E+01 4.75927E+01 2.42804E+00
 -1       441 9.79015E+00 1.41780E+01 2.49064E+00
 -1       442 4.80000E+01 4.40000E+01 2.50000E+00
 -1       443 0.00000E+00 0.00000E+00 2.50000E+00
 -1       444 4.40000E+01 4.03333E+01 0.00000E+00
 -1       445 3.60000E+01 3.30000E+01 0.00000E+00
 -1       446 2.80000E+01 2.56667E+01 0.00000E+00
 -1       447 2.00000E+01 1.83333E+01 0.00000E+00
 -1       448 1.20000E+01 1.10000E+01 0.00000E+00
 -1       449 4.00000E+00 3.66667E+00 0.00000E+00
 -1       450 4.40000E+01 4.03333E+01 5.00000E+00
 -1       451 3.60000E+01 3.30000E+01 5.00000E+00
 -1       452 2.80000E+01 2.56667E+01 5.00000E+00
 -1       453 2.00000E+01 1.83333E+01 5.00000E+00
 -1       454 1.20000E+01 1.10000E+01 5.00000E+00
 -1       455 4.00000E+00 3.66667E+00 5.00000E+00
 -1       456 4.80000E+01 6.00000E+01 2.50000E+00
 -1       457 4.80000E+01 5.60000E+01 0.00000E+00
 -1       458 4.80000E+01 4.80000E+01 0.00000E+00
 -1       459 4.80000E+01 5.60000E+01 5.00000E+00
 -1       460 4.80000E+01 4.80000E+01 5.00000E+00
 -1       461 0.00000E+00 4.40000E+01 2.50000E+00
 -1       462 6.00000E+00 4.60000E+01 0.00000E+00
 -1       463 1.80000E+01 5.00000E+01 0.00000E+00
 -1       464 3.00000E+01 5.40000E+01 0.00000E+00
 -1       465 4.20000E+01 5.80000E+01 0.00000E+00
 -1       466 6.00000E+00 4.60000E+01 5.00000E+00
 -1       467 1.80000E+01 5.00000E+01 5.00000E+00
 -1       468 3.00000E+01 5.40000E+01 5.00000E+00
 -1       469 4.20000E+01 5.80000E+01 5.00000E+00
 -1       470 0.00000E+00 5.50000E+00 0.00000E+00
 -1       471 0.00000E+00 1.65000E+01 0.00000E+00
 -1       472 0.00000E+00 2.75000E+01 0.00000E+00
 -1       473 0.00000E+00 3.85000E+01 0.00000E+00
 -1       474 0.00000E+00 5.50000E+00 5.00000E+00
 -1       475 0.00000E+00 1.65000E+01 5.00000E+00
 -1       476 0.00000E+00 2.75000E+01 5.00000E+00
 -1       477 0.00000E+00 3.85000E+01 5.00000E+00
 -1       478 4.40000E+01 4.03333E+01 2.50000E+00
 -1       479 3.60000E+01 3.30000E+01 2.50000E+00
 -1       480 3.20000E+01 2.93333E+01 2.50000E+00
 -1       481 2.80000E+01 2.56667E+01 2.50000E+00
 -1       482 2.00000E+01 1.83333E+01 2.50000E+00
 -1       483 2.40000E+01 2.20000E+01 2.50000E+00
 -1       484 1.20000E+01 1.10000E+01 2.50000E+00
 -1       485 1.60000E+01 1.46667E+01 2.50000E+00
 -1       486 4.00000E+00 3.66667E+00 2.50000E+00
 -1       487 8.00000E+00 7.33333E+00 2.50000E+00
 -1       488 4.00000E+01 3.66667E+01 2.50000E+00
 -1       489 4.80000E+01 5.20000E+01 2.50000E+00
 -1       490 4.80000E+01 5.60000E+01 2.50000E+00
 -1       491 4.80000E+01 4.80000E+01 2.50000E+00
 -1       492 6.00000E+00 4.60000E+01 2.50000E+00
 -1       493 1.80000E+01 5.00000E+01 2.50000E+00
 -1       494 2.40000E+01 5.20000E+01 2.50000E+00
 -1       495 3.00000E+01 5.40000E+01 2.50000E+00
 -1       496 4.20000E+01 5.80000E+01 2.50000E+00
 -1       497 3.60000E+01 5.60000E+01 2.50000E+00
 -1       498 1.20000E+01 4.80000E+01 2.50000E+00
 -1       499 0.00000E+00 5.50000E+00 2.50000E+00
 -1       500 0.00000E+00 1.65000E+01 2.50000E+00
 -1       501 0.00000E+00 2.20000E+01 2.50000E+00
 -1       502 0.00000E+00 2.75000E+01 2.50000E+00
 -1       503 0.00000E+00 3.85000E+01 2.50000E+00
 -1       504 0.00000E+00 3.30000E+01 2.50000E+00
 -1       505 0.00000E+00 1.10000E+01 2.50000E+00
 -1       506 3.90033E+01 4.16999E+01 0.00000E+00
 -1       507 4.30033E+01 4.53666E+01 0.00000E+00
 -1       508 2.24769E+01 2.90597E+01 0.00000E+00
 -1       509 2.64769E+01 3.27264E+01 0.00000E+00
 -1       510 4.00000E+00 9.16667E+00 0.00000E+00
 -1       511 3.31337E+00 3.00549E+01 0.00000E+00
 -1       512 3.31337E+00 2.45549E+01 0.00000E+00
 -1       513 4.80938E+00 4.01328E+01 0.00000E+00
 -1       514 4.80938E+00 3.46328E+01 0.00000E+00
 -1       515 8.12276E+00 3.16878E+01 0.00000E+00
 -1       516 1.08094E+01 4.21328E+01 0.00000E+00
 -1       517 2.24769E+01 4.40597E+01 0.00000E+00
 -1       518 1.64769E+01 4.20597E+01 0.00000E+00
 -1       519 3.70033E+01 5.13666E+01 0.00000E+00
 -1       520 3.10033E+01 4.93666E+01 0.00000E+00
 -1       521 4.20000E+01 5.40000E+01 0.00000E+00
 -1       522 4.30033E+01 4.93666E+01 0.00000E+00
 -1       523 3.87902E+00 1.43979E+01 0.00000E+00
 -1       524 7.87902E+00 1.25646E+01 0.00000E+00
 -1       525 1.18790E+01 1.62313E+01 0.00000E+00
 -1       526 3.87902E+00 1.98979E+01 0.00000E+00
 -1       527 3.12977E+01 3.47727E+01 0.00000E+00
 -1       528 3.52977E+01 3.84394E+01 0.00000E+00
 -1       529 1.54630E+01 2.02175E+01 0.00000E+00
 -1       530 1.94630E+01 2.38841E+01 0.00000E+00
 -1       531 3.43010E+01 4.34726E+01 0.00000E+00
 -1       532 1.79399E+01 3.09438E+01 0.00000E+00
 -1       533 2.57746E+01 3.81657E+01 0.00000E+00
 -1       534 2.72977E+01 4.61061E+01 0.00000E+00
 -1       535 7.19239E+00 2.24529E+01 0.00000E+00
 -1       536 1.52862E+01 3.61925E+01 0.00000E+00
 -1       537 1.13420E+01 2.17821E+01 0.00000E+00
 -1       538 1.07764E+01 2.64391E+01 0.00000E+00
 -1       539 1.22724E+01 3.10170E+01 0.00000E+00
 -1       540 4.00000E+00 9.16667E+00 5.00000E+00
 -1       541 1.77060E+01 2.37409E+01 5.00000E+00
 -1       542 1.37060E+01 2.00742E+01 5.00000E+00
 -1       543 3.27279E+01 3.85772E+01 5.00000E+00
 -1       544 2.87279E+01 3.49106E+01 5.00000E+00
 -1       545 4.25065E+01 4.52989E+01 5.00000E+00
 -1       546 3.85065E+01 4.16322E+01 5.00000E+00
 -1       547 3.12343E+01 4.35428E+01 5.00000E+00
 -1       548 4.25065E+01 4.92989E+01 5.00000E+00
 -1       549 4.20000E+01 5.40000E+01 5.00000E+00
 -1       550 3.05065E+01 4.92989E+01 5.00000E+00
 -1       551 2.47279E+01 4.62439E+01 5.00000E+00
 -1       552 1.87279E+01 4.42439E+01 5.00000E+00
 -1       553 5.71414E+00 4.06156E+01 5.00000E+00
 -1       554 1.17141E+01 4.26156E+01 5.00000E+00
 -1       555 5.71414E+00 3.51156E+01 5.00000E+00
 -1       556 5.70602E+00 2.37409E+01 5.00000E+00
 -1       557 5.70602E+00 2.92409E+01 5.00000E+00
 -1       558 1.15929E+01 1.55211E+01 5.00000E+00
 -1       559 7.59292E+00 1.18544E+01 5.00000E+00
 -1       560 2.64216E+01 3.02425E+01 5.00000E+00
 -1       561 2.24216E+01 2.65759E+01 5.00000E+00
 -1       562 2.31495E+01 3.58198E+01 5.00000E+00
 -1       563 3.65065E+01 5.12989E+01 5.00000E+00
 -1       564 1.14202E+01 3.13565E+01 5.00000E+00
 -1       565 3.59292E+00 1.36878E+01 5.00000E+00
 -1       566 3.59292E+00 1.91878E+01 5.00000E+00
 -1       567 1.61276E+01 2.83167E+01 5.00000E+00
 -1       568 1.84420E+01 3.88595E+01 5.00000E+00
 -1       569 9.29894E+00 2.09287E+01 5.00000E+00
 -1       570 1.61357E+01 3.41915E+01 5.00000E+00
 -1       571 3.36848E+01 5.23040E+01 1.26920E+00
 -1       572 3.88250E+01 5.43775E+01 1.24207E+00
 -1       573 3.65098E+01 5.06816E+01 2.51127E+00
 -1       574 3.36848E+01 5.23040E+01 3.76920E+00
 -1       575 3.88250E+01 5.43775E+01 3.74207E+00
 -1       576 2.48400E+01 4.18450E+01 1.33555E+00
 -1       577 2.22702E+01 4.19828E+01 3.83555E+00
 -1       578 2.80256E+01 4.03500E+01 2.50000E+00
 -1       579 2.00191E+01 3.97986E+01 1.33555E+00
 -1       580 2.32047E+01 3.83036E+01 2.50000E+00
 -1       581 2.38322E+00 3.12205E+01 3.74630E+00
 -1       582 2.38322E+00 3.12205E+01 1.24630E+00
 -1       583 2.38322E+00 2.57205E+01 1.24630E+00
 -1       584 7.94009E+00 3.72318E+01 3.73014E+00
 -1       585 2.22595E+00 3.51161E+01 3.73014E+00
 -1       586 8.09736E+00 3.33361E+01 3.74630E+00
 -1       587 4.60917E+00 3.33366E+01 2.47644E+00
 -1       588 1.43517E+01 3.98718E+01 1.33555E+00
 -1       589 1.05235E+01 3.67485E+01 2.50000E+00
 -1       590 1.52564E+01 4.03545E+01 3.83555E+00
 -1       591 1.61910E+01 3.66753E+01 2.50000E+00
 -1       592 2.76848E+01 5.03040E+01 1.26920E+00
 -1       593 1.05154E+01 3.08737E+01 2.50000E+00
 -1       594 1.52310E+01 3.37087E+01 2.50000E+00
 -1       595 4.03970E+01 3.97329E+01 3.75555E+00
 -1       596 3.76292E+01 4.05645E+01 2.45326E+00
 -1       597 3.72322E+01 3.74982E+01 3.69771E+00
 -1       598 4.03970E+01 3.97329E+01 1.25555E+00
 -1       599 3.72322E+01 3.74982E+01 1.19771E+00
 -1       600 1.39153E+01 4.27550E+01 2.57868E+00
 -1       601 1.03730E+01 4.50161E+01 3.74313E+00
 -1       602 1.55423E+01 4.57389E+01 3.83555E+00
 -1       603 1.00871E+01 3.96318E+01 3.74313E+00
 -1       604 2.22595E+00 4.06161E+01 3.73014E+00
 -1       605 2.76848E+01 5.03040E+01 3.76920E+00
 -1       606 3.89034E+01 4.46984E+01 3.75555E+00
 -1       607 4.43970E+01 4.33996E+01 3.75555E+00
 -1       608 2.19968E+00 1.81614E+01 1.24434E+00
 -1       609 2.64242E+00 2.18892E+01 1.22390E+00
 -1       610 4.84210E+00 1.80506E+01 2.46824E+00
 -1       611 2.19968E+00 1.81614E+01 3.74434E+00
 -1       612 2.64242E+00 2.18892E+01 3.72390E+00
 -1       613 3.46881E+01 4.76706E+01 1.26920E+00
 -1       614 3.09825E+01 4.44101E+01 1.26920E+00
 -1       615 1.78846E+01 2.84600E+01 2.50000E+00
 -1       616 1.31690E+01 2.56250E+01 2.50000E+00
 -1       617 3.32322E+01 3.38316E+01 1.19771E+00
 -1       618 3.32322E+01 3.38316E+01 3.69771E+00
 -1       619 2.96091E+01 3.19359E+01 1.24944E+00
 -1       620 3.08414E+01 3.64341E+01 2.44714E+00
 -1       621 2.96091E+01 3.19359E+01 3.74944E+00
 -1       622 3.93315E+01 4.96764E+01 3.74207E+00
 -1       623 4.48250E+01 5.23775E+01 3.74207E+00
 -1       624 2.08985E+01 3.36356E+01 2.50000E+00
 -1       625 8.08924E+00 2.74614E+01 3.74630E+00
 -1       626 7.19260E+00 3.28533E+01 1.24630E+00
 -1       627 2.78890E+01 2.87541E+01 1.29852E+00
 -1       628 2.23659E+01 3.21471E+01 1.29852E+00
 -1       629 2.54982E+01 3.13566E+01 2.54796E+00
 -1       630 2.40860E+01 3.53289E+01 1.24944E+00
 -1       631 2.63370E+01 3.75131E+01 3.74944E+00
 -1       632 2.40307E+01 3.28451E+01 3.74944E+00
 -1       633 2.15423E+01 4.77389E+01 1.33555E+00
 -1       634 4.48250E+01 5.63775E+01 3.74207E+00
 -1       635 4.48250E+01 5.23775E+01 1.24207E+00
 -1       636 4.48250E+01 5.63775E+01 1.24207E+00
 -1       637 3.57387E+01 4.24638E+01 3.69771E+00
 -1       638 9.01939E+00 2.62958E+01 2.50000E+00
 -1       639 9.58504E+00 2.16388E+01 2.50000E+00
 -1       640 1.73588E+00 9.49388E+00 1.25416E+00
 -1       641 5.73588E+00 7.66055E+00 1.25416E+00
 -1       642 1.73588E+00 3.99388E+00 1.25416E+00
 -1       643 8.89507E+00 1.07557E+01 3.74532E+00
 -1       644 8.48799E+00 1.52768E+01 3.74532E+00
 -1       645 1.28951E+01 1.44223E+01 3.74532E+00
 -1       646 2.19968E+00 1.26614E+01 1.24434E+00
 -1       647 2.78890E+01 2.87541E+01 3.79852E+00
 -1       648 2.23107E+01 2.96633E+01 3.79852E+00
 -1       649 2.99601E+01 3.94088E+01 3.69771E+00
 -1       650 4.59281E+01 4.97963E+01 1.21402E+00
 -1       651 4.59281E+01 4.97963E+01 3.71402E+00
 -1       652 4.59281E+01 4.57963E+01 1.21402E+00
 -1       653 5.73588E+00 7.66055E+00 3.75416E+00
 -1       654 1.03730E+01 4.50161E+01 1.24313E+00
 -1       655 4.37301E+00 4.30161E+01 1.24313E+00
 -1       656 1.55423E+01 4.57389E+01 1.33555E+00
 -1       657 1.42406E+01 1.68016E+01 1.24432E+00
 -1       658 1.37036E+01 2.23524E+01 1.24432E+00
 -1       659 1.01196E+01 1.83662E+01 1.24432E+00
 -1       660 2.22595E+00 3.51161E+01 1.23014E+00
 -1       661 2.22595E+00 4.06161E+01 1.23014E+00
 -1       662 1.28951E+01 1.44223E+01 1.24532E+00
 -1       663 8.77409E+00 1.59869E+01 1.24532E+00
 -1       664 8.89507E+00 1.07557E+01 1.24532E+00
 -1       665 2.10300E+01 2.23104E+01 1.23158E+00
 -1       666 1.70300E+01 1.86437E+01 3.73158E+00
 -1       667 1.70300E+01 1.86437E+01 1.23158E+00
 -1       668 2.10300E+01 2.23104E+01 3.73158E+00
 -1       669 1.94516E+01 2.68863E+01 3.73158E+00
 -1       670 1.47360E+01 2.40513E+01 3.73158E+00
 -1       671 4.37301E+00 4.30161E+01 3.74313E+00
 -1       672 2.38890E+01 2.50874E+01 1.29852E+00
 -1       673 2.38890E+01 2.50874E+01 3.79852E+00
 -1       674 2.09191E+01 2.53978E+01 2.53011E+00
 -1       675 1.42406E+01 1.68016E+01 3.74432E+00
 -1       676 1.52706E+01 2.07787E+01 2.47590E+00
 -1       677 4.27531E+01 5.01739E+01 2.45609E+00
 -1       678 9.83349E+00 1.76561E+01 3.74432E+00
 -1       679 1.11356E+01 1.65573E+01 2.48964E+00
 -1       680 7.09476E+00 1.42504E+01 2.48966E+00
 -1       681 6.19968E+00 1.08280E+01 3.74434E+00
 -1       682 5.79260E+00 1.53491E+01 3.74434E+00
 -1       683 2.15423E+01 4.77389E+01 3.83555E+00
 -1       684 2.84127E+01 4.45479E+01 3.76920E+00
 -1       685 2.52271E+01 4.60429E+01 2.60475E+00
 -1       686 6.23534E+00 1.90770E+01 3.72390E+00
 -1       687 8.34844E+00 2.36301E+01 3.72390E+00
 -1       688 2.89069E+01 3.73753E+01 1.24944E+00
 -1       689 3.98283E+01 4.97441E+01 1.24207E+00
 -1       690 2.38322E+00 2.57205E+01 3.74630E+00
 -1       691 4.43970E+01 4.33996E+01 1.25555E+00
 -1       692 6.19968E+00 1.08280E+01 1.24434E+00
 -1       693 6.07870E+00 1.60593E+01 1.24434E+00
 -1       694 3.93556E+00 1.11553E+01 2.49850E+00
 -1       695 2.19968E+00 1.26614E+01 3.74434E+00
 -1       696 4.04346E+01 4.70952E+01 3.71402E+00
 -1       697 4.59281E+01 4.57963E+01 3.71402E+00
 -1       698 1.73588E+00 3.99388E+00 3.75416E+00
 -1       699 6.52144E+00 1.97872E+01 1.22390E+00
 -1       700 7.47193E+00 1.70857E+01 2.50000E+00
 -1       701 1.93521E+01 2.69716E+01 1.29852E+00
 -1       702 3.25299E+01 3.92710E+01 1.19771E+00
 -1       703 5.69659E+00 2.82754E+01 1.24630E+00
 -1       704 5.02564E+00 2.56097E+01 2.47020E+00
 -1       705 3.62355E+01 4.25315E+01 1.19771E+00
 -1       706 3.94002E+01 4.47661E+01 1.25555E+00
 -1       707 4.23251E+01 4.51959E+01 2.46957E+00
 -1       708 4.09314E+01 4.71629E+01 1.21402E+00
 -1       709 3.75097E+01 4.66655E+01 2.50000E+00
 -1       710 1.64930E+01 2.41945E+01 1.23158E+00
 -1       711 5.95579E+00 2.44442E+01 1.22390E+00
 -1       712 3.38042E+01 4.34049E+01 2.50000E+00
 -1       713 1.73588E+00 9.49388E+00 3.75416E+00
 -1       714 9.18239E+00 3.91490E+01 1.24313E+00
 -1       715 6.59896E+00 3.96323E+01 2.47328E+00
 -1       716 7.03533E+00 3.67490E+01 1.23014E+00
 -1       717 3.41913E+01 4.76029E+01 3.76920E+00
 -1       718 1.19466E+01 2.22091E+01 3.74432E+00
 -3
    3C                           173                                     1
 -1       395    6    0    1
 -2       436       429       402       405       573       572       571       574       575       497
 -1       396    6    0    1
 -2       417       420       426       413       578       577       576       533       580       579
 -1       397    6    0    1
 -2       411       407       408       425       502       472       504       581       583       582
 -1       398    6    0    1
 -2       411       437       422       425       585       584       555       581       587       586
 -1       399    6    0    1
 -2       426       422       415       413       590       589       588       579       591       536
 -1       400    6    0    1
 -2       436       405       402       401       574       497       571       592       495       464
 -1       401    6    0    1
 -2       419       424       415       422       567       594       593       564       570       589
 -1       402    6    0    1
 -2       393       432       427       388       597       596       595       488       599       598
 -1       403    6    0    1
 -2       426       403       435       422       602       601       600       590       554       603
 -1       404    6    0    1
 -2       422       411       387       437       555       477       553       584       585       604
 -1       405    6    0    1
 -2       401       436       405       404       592       574       495       494       605       468
 -1       406    6    0    1
 -2       427       381       421       393       607       545       606       595       450       546
 -1       407    6    0    1
 -2       428       433       407       410       610       609       608       611       612       501
 -1       408    6    0    1
 -2       412       436       401       417       613       592       520       531       614       534
 -1       409    6    0    1
 -2       424       419       415       418       567       593       594       615       616       539
 -1       410    6    0    1
 -2       389       394       432       430       480       618       617       619       621       620
 -1       411    6    0    1
 -2       421       399       429       405       548       623       622       563       549       575
 -1       412    6    0    1
 -2       424       415       413       418       594       536       624       615       539       532
 -1       413    6    0    1
 -2       413       415       424       422       536       594       624       591       589       570
 -1       414    6    0    1
 -2       419       422       415       425       564       589       593       625       586       626
 -1       415    6    0    1
 -2       389       413       438       430       509       628       627       619       630       629
 -1       416    6    0    1
 -2       413       430       420       424       630       631       580       624       632       562
 -1       417    6    0    1
 -2       417       413       426       401       533       579       576       534       517       633
 -1       418    6    0    1
 -2       389       388       432       394       445       599       617       480       479       618
 -1       419    6    0    1
 -2       385       384       398       429       456       457       490       634       636       635
 -1       420    6    0    1
 -2       432       393       427       421       597       595       596       637       546       606
 -1       421    6    0    1
 -2       388       432       394       393       599       618       479       488       597       451
 -1       422    6    0    1
 -2       419       414       418       416       638       538       616       639       535       537
 -1       423    6    0    1
 -2       406       392       434       382       510       641       640       470       449       642
 -1       424    6    0    1
 -2       441       423       397       396       644       559       643       645       558       454
 -1       425    6    0    1
 -2       428       410       407       406       611       501       608       646       500       471
 -1       426    6    0    1
 -2       394       389       438       430       480       627       647       621       619       629
 -1       427    6    0    1
 -2       394       430       438       424       621       629       647       560       632       648
 -1       428    6    0    1
 -2       413       422       424       420       591       570       624       580       568       562
 -1       429    6    0    1
 -2       420       393       394       432       543       451       544       649       597       618
 -1       430    6    0    1
 -2       398       399       440       380       489       651       650       458       491       652
 -1       431    6    0    1
 -2       424       394       430       420       560       621       632       562       544       631
 -1       432    6    0    1
 -2       434       392       397       382       641       487       653       642       449       486
 -1       433    6    0    1
 -2       421       393       420       432       546       543       547       637       597       649
 -1       434    6    0    1
 -2       403       386       400       435       492       462       498       601       655       654
 -1       435    6    0    1
 -2       426       413       415       400       579       536       588       656       518       516
 -1       436    6    0    1
 -2       439       418       391       416       658       529       657       659       537       525
 -1       437    6    0    1
 -2       408       386       411       437       473       503       504       660       661       585
 -1       438    6    0    1
 -2       411       386       387       437       503       461       477       585       661       604
 -1       439    6    0    1
 -2       441       416       391       392       663       525       662       664       524       448
 -1       440    6    0    1
 -2       390       391       396       431       447       485       482       665       667       666
 -1       441    6    0    1
 -2       395       419       424       431       541       567       561       668       670       669
 -1       442    6    0    1
 -2       387       386       403       435       461       492       466       671       655       601
 -1       443    6    0    1
 -2       390       395       438       431       483       673       672       665       668       674
 -1       444    6    0    1
 -2       413       401       400       426       517       463       518       579       633       656
 -1       445    6    0    1
 -2       396       419       395       431       542       541       453       666       670       668
 -1       446    6    0    1
 -2       391       439       396       431       657       675       485       667       676       666
 -1       447    6    0    1
 -2       390       431       396       395       665       666       482       483       668       453
 -1       448    6    0    1
 -2       440       399       398       429       651       489       650       677       623       635
 -1       449    6    0    1
 -2       423       396       441       439       558       645       644       678       675       679
 -1       450    6    0    1
 -2       428       397       441       423       681       643       680       682       559       644
 -1       451    6    0    1
 -2       426       400       435       403       656       654       600       602       498       601
 -1       452    6    0    1
 -2       420       426       404       436       577       683       551       684       685       605
 -1       453    6    0    1
 -2       441       439       391       416       679       657       662       663       659       525
 -1       454    6    0    1
 -2       422       419       411       425       564       557       555       586       625       581
 -1       455    6    0    1
 -2       391       392       397       441       448       487       484       662       664       643
 -1       456    6    0    1
 -2       410       419       423       433       556       569       566       612       687       686
 -1       457    6    0    1
 -2       430       413       417       389       630       533       688       619       509       527
 -1       458    6    0    1
 -2       398       402       412       429       521       519       522       635       572       689
 -1       459    6    0    1
 -2       422       387       403       435       553       466       554       603       671       601
 -1       460    6    0    1
 -2       433       423       410       428       686       566       612       610       682       611
 -1       461    6    0    1
 -2       426       403       422       420       602       554       590       577       552       568
 -1       462    6    0    1
 -2       410       407       411       425       501       502       476       690       583       581
 -1       463    6    0    1
 -2       427       381       393       380       607       450       595       691       442       478
 -1       464    6    0    1
 -2       427       393       388       380       595       488       598       691       478       444
 -1       465    6    0    1
 -2       428       392       406       416       692       510       646       693       524       523
 -1       466    6    0    1
 -2       385       429       398       399       634       635       490       459       623       489
 -1       467    6    0    1
 -2       406       392       428       434       510       692       646       640       641       694
 -1       468    6    0    1
 -2       397       434       428       392       653       694       681       487       641       692
 -1       469    6    0    1
 -2       406       428       410       409       646       611       500       505       695       475
 -1       470    6    0    1
 -2       441       396       391       439       645       485       662       679       675       657
 -1       471    6    0    1
 -2       384       402       398       429       465       521       457       636       572       635
 -1       472    6    0    1
 -2       421       381       440       399       545       697       696       548       460       651
 -1       473    6    0    1
 -2       391       441       397       396       662       643       484       485       645       454
 -1       474    6    0    1
 -2       397       434       382       383       653       642       486       455       698       443
 -1       475    6    0    1
 -2       411       419       410       425       557       556       476       581       625       690
 -1       476    6    0    1
 -2       401       404       400       426       494       493       463       633       683       656
 -1       477    6    0    1
 -2       419       433       416       423       687       699       639       569       686       700
 -1       478    6    0    1
 -2       400       404       403       426       493       467       498       656       683       602
 -1       479    6    0    1
 -2       399       381       440       380       460       697       651       491       442       652
 -1       480    6    0    1
 -2       438       418       413       390       701       532       628       672       530       508
 -1       481    6    0    1
 -2       420       432       430       417       649       620       631       578       702       688
 -1       482    6    0    1
 -2       408       437       411       425       660       585       504       582       587       581
 -1       483    6    0    1
 -2       425       407       408       414       583       472       582       703       512       511
 -1       484    6    0    1
 -2       419       425       415       414       625       626       593       638       703       515
 -1       485    6    0    1