
 displacements (vx,vy,vz) for set VERTEX and time  0.1000000E+01

       385 -1.804970E+01  2.552189E+01  0.000000E+00
